# vtk DataFile Version 3.0
vtk output
ASCII
DATASET UNSTRUCTURED_GRID
POINTS 5233 float
9.997500e-01	-3.632909e-05	0.0	9.990000e-01	-1.452618e-04	0.0	9.977600e-01	-3.252008e-04	0.0	9.960200e-01	-5.774943e-04	0.0	9.937800e-01	-9.022942e-04	0.0	9.910500e-01	-1.298763e-03	0.0	9.878400e-01	-1.766726e-03	0.0	9.841300e-01	-2.311194e-03	0.0	9.799500e-01	-2.930640e-03	0.0	9.752800e-01	-3.631444e-03	0.0	9.701500e-01	-4.412625e-03	0.0	9.645400e-01	-5.280292e-03	0.0	9.584700e-01	-6.233365e-03	0.0	9.519400e-01	-7.272227e-03	0.0	9.449600e-01	-8.393908e-03	0.0	9.375400e-01	-9.593773e-03	0.0	9.296900e-01	-1.086609e-02	0.0	9.214000e-01	-1.220804e-02	0.0	9.127000e-01	-1.361074e-02	0.0	9.035800e-01	-1.507272e-02	0.0	8.940600e-01	-1.658877e-02	0.0	8.841500e-01	-1.815610e-02	0.0	8.738500e-01	-1.977361e-02	0.0	8.631800e-01	-2.143627e-02	0.0	8.521600e-01	-2.313752e-02	0.0	8.407700e-01	-2.487471e-02	0.0	8.290500e-01	-2.663345e-02	0.0	8.170100e-01	-2.840162e-02	0.0	8.046400e-01	-3.016792e-02	0.0	7.919700e-01	-3.191393e-02	0.0	7.790100e-01	-3.362378e-02	0.0	7.657800e-01	-3.528073e-02	0.0	7.522800e-01	-3.687177e-02	0.0	7.385200e-01	-3.838440e-02	0.0	7.245300e-01	-3.980643e-02	0.0	7.103200e-01	-4.113073e-02	0.0	6.958900e-01	-4.235375e-02	0.0	6.812700e-01	-4.347212e-02	0.0	6.664700e-01	-4.448693e-02	0.0	6.515000e-01	-4.540154e-02	0.0	6.363800e-01	-4.622067e-02	0.0	6.211300e-01	-4.695082e-02	0.0	6.057600e-01	-4.760016e-02	0.0	5.902800e-01	-4.817747e-02	0.0	5.747100e-01	-4.869148e-02	0.0	5.590600e-01	-4.915119e-02	0.0	5.433600e-01	-4.956464e-02	0.0	5.276100e-01	-4.993996e-02	0.0	5.118400e-01	-5.028359e-02	0.0	4.960500e-01	-5.060149e-02	0.0	4.802700e-01	-5.089775e-02	0.0	4.645100e-01	-5.117554e-02	0.0	4.487800e-01	-5.143670e-02	0.0	4.331100e-01	-5.168146e-02	0.0	4.175000e-01	-5.190932e-02	0.0	4.019700e-01	-5.211839e-02	0.0	3.865400e-01	-5.230586e-02	0.0	3.712300e-01	-5.246816e-02	0.0	3.560400e-01	-5.260130e-02	0.0	3.409900e-01	-5.270061e-02	0.0	3.261100e-01	-5.276113e-02	0.0	3.114000e-01	-5.277790e-02	0.0	2.968700e-01	-5.274582e-02	0.0	2.825500e-01	-5.265996e-02	0.0	2.684500e-01	-5.251559e-02	0.0	2.545700e-01	-5.230801e-02	0.0	2.409400e-01	-5.203324e-02	0.0	2.275700e-01	-5.168749e-02	0.0	2.144700e-01	-5.126729e-02	0.0	2.016600e-01	-5.076993e-02	0.0	1.891400e-01	-5.019238e-02	0.0	1.769300e-01	-4.953284e-02	0.0	1.650400e-01	-4.878952e-02	0.0	1.534900e-01	-4.796177e-02	0.0	1.422900e-01	-4.704883e-02	0.0	1.314400e-01	-4.604934e-02	0.0	1.209500e-01	-4.496296e-02	0.0	1.108500e-01	-4.379208e-02	0.0	1.011300e-01	-4.253503e-02	0.0	9.181000e-02	-4.119389e-02	0.0	8.290000e-02	-3.976997e-02	0.0	7.440000e-02	-3.826304e-02	0.0	6.633000e-02	-3.667657e-02	0.0	5.869000e-02	-3.501058e-02	0.0	5.149000e-02	-3.326708e-02	0.0	4.474000e-02	-3.144844e-02	0.0	3.844000e-02	-2.955433e-02	0.0	3.260000e-02	-2.758711e-02	0.0	2.723000e-02	-2.554977e-02	0.0	2.232000e-02	-2.343708e-02	0.0	1.790000e-02	-2.126113e-02	0.0	1.395000e-02	-1.901092e-02	0.0	1.049000e-02	-1.669561e-02	0.0	7.520000e-03	-1.431461e-02	0.0	5.040000e-03	-1.186637e-02	0.0	3.050000e-03	-9.347302e-03	0.0	1.560000e-03	-6.769269e-03	0.0	5.600000e-04	-4.108233e-03	0.0	6.000000e-05	-1.363608e-03	0.0	0.000000e+00	0.000000e+00	0.0	6.000000e-05	1.350236e-03	0.0	5.600000e-04	4.050826e-03	0.0	1.560000e-03	6.663226e-03	0.0	3.050000e-03	9.195473e-03	0.0	5.040000e-03	1.167583e-02	0.0	7.520000e-03	1.409653e-02	0.0	1.049000e-02	1.646478e-02	0.0	1.395000e-02	1.878581e-02	0.0	1.790000e-02	2.106403e-02	0.0	2.232000e-02	2.329392e-02	0.0	2.723000e-02	2.549065e-02	0.0	3.260000e-02	2.764558e-02	0.0	3.844000e-02	2.976800e-02	0.0	4.474000e-02	3.185849e-02	0.0	5.149000e-02	3.391797e-02	0.0	5.869000e-02	3.595015e-02	0.0	6.633000e-02	3.795531e-02	0.0	7.440000e-02	3.993367e-02	0.0	8.290000e-02	4.188739e-02	0.0	9.181000e-02	4.381361e-02	0.0	1.011300e-01	4.571359e-02	0.0	1.108500e-01	4.758588e-02	0.0	1.209500e-01	4.942683e-02	0.0	1.314400e-01	5.123782e-02	0.0	1.422900e-01	5.301272e-02	0.0	1.534900e-01	5.474871e-02	0.0	1.650400e-01	5.644398e-02	0.0	1.769300e-01	5.809472e-02	0.0	1.891400e-01	5.969553e-02	0.0	2.016600e-01	6.124223e-02	0.0	2.144700e-01	6.272926e-02	0.0	2.275700e-01	6.415328e-02	0.0	2.409400e-01	6.550849e-02	0.0	2.545700e-01	6.679020e-02	0.0	2.684500e-01	6.799357e-02	0.0	2.825500e-01	6.911218e-02	0.0	2.968700e-01	7.014214e-02	0.0	3.114000e-01	7.107860e-02	0.0	3.261100e-01	7.191555e-02	0.0	3.409900e-01	7.264840e-02	0.0	3.560400e-01	7.327286e-02	0.0	3.712300e-01	7.378330e-02	0.0	3.865400e-01	7.417483e-02	0.0	4.019700e-01	7.444303e-02	0.0	4.175000e-01	7.458295e-02	0.0	4.331100e-01	7.458992e-02	0.0	4.487800e-01	7.445955e-02	0.0	4.645100e-01	7.418745e-02	0.0	4.802700e-01	7.376991e-02	0.0	4.960500e-01	7.320341e-02	0.0	5.118400e-01	7.248482e-02	0.0	5.276100e-01	7.161270e-02	0.0	5.433600e-01	7.058503e-02	0.0	5.590600e-01	6.940265e-02	0.0	5.747100e-01	6.806549e-02	0.0	5.902800e-01	6.657731e-02	0.0	6.057600e-01	6.494175e-02	0.0	6.211300e-01	6.316504e-02	0.0	6.363800e-01	6.125402e-02	0.0	6.515000e-01	5.921698e-02	0.0	6.664700e-01	5.706516e-02	0.0	6.812700e-01	5.481151e-02	0.0	6.958900e-01	5.246892e-02	0.0	7.103200e-01	5.005129e-02	0.0	7.245300e-01	4.757686e-02	0.0	7.385200e-01	4.505941e-02	0.0	7.522800e-01	4.251466e-02	0.0	7.657800e-01	3.996213e-02	0.0	7.790100e-01	3.741749e-02	0.0	7.919700e-01	3.489399e-02	0.0	8.046400e-01	3.240819e-02	0.0	8.170100e-01	2.997405e-02	0.0	8.290500e-01	2.760884e-02	0.0	8.407700e-01	2.532127e-02	0.0	8.521600e-01	2.312328e-02	0.0	8.631800e-01	2.103157e-02	0.0	8.738500e-01	1.905016e-02	0.0	8.841500e-01	1.718895e-02	0.0	8.940600e-01	1.545535e-02	0.0	9.035800e-01	1.385019e-02	0.0	9.127000e-01	1.237271e-02	0.0	9.214000e-01	1.102010e-02	0.0	9.296900e-01	9.781662e-03	0.0	9.375400e-01	8.650401e-03	0.0	9.449600e-01	7.612208e-03	0.0	9.519400e-01	6.656126e-03	0.0	9.584700e-01	5.772587e-03	0.0	9.645400e-01	4.954359e-03	0.0	9.701500e-01	4.195689e-03	0.0	9.752800e-01	3.496291e-03	0.0	9.799500e-01	2.852720e-03	0.0	9.841300e-01	2.270023e-03	0.0	9.878400e-01	1.747228e-03	0.0	9.910500e-01	1.290667e-03	0.0	9.937800e-01	8.994899e-04	0.0	9.960200e-01	5.767420e-04	0.0	9.977600e-01	3.250644e-04	0.0	9.990000e-01	1.452495e-04	0.0	9.997500e-01	3.632890e-05	0.0	1.000000e+00	0.000000e+00	0.0	1.984229e+01	2.506660e+00	0.0	1.937166e+01	4.973800e+00	0.0	1.859553e+01	7.362490e+00	0.0	1.752613e+01	9.635070e+00	0.0	1.618034e+01	1.175571e+01	0.0	1.457937e+01	1.369094e+01	0.0	1.274848e+01	1.541027e+01	0.0	1.071654e+01	1.688656e+01	0.0	8.515590e+00	1.809654e+01	0.0	6.180340e+00	1.902113e+01	0.0	3.747630e+00	1.964575e+01	0.0	1.255810e+00	1.996053e+01	0.0	-1.255810e+00	1.996053e+01	0.0	-3.747630e+00	1.964574e+01	0.0	-6.180340e+00	1.902113e+01	0.0	-8.515590e+00	1.809654e+01	0.0	-1.071654e+01	1.688656e+01	0.0	-1.274848e+01	1.541026e+01	0.0	-1.457937e+01	1.369094e+01	0.0	-1.618034e+01	1.175570e+01	0.0	-1.752613e+01	9.635070e+00	0.0	-1.859553e+01	7.362490e+00	0.0	-1.937166e+01	4.973800e+00	0.0	-1.984229e+01	2.506660e+00	0.0	-2.000000e+01	0.000000e+00	0.0	-1.984229e+01	-2.506670e+00	0.0	-1.937166e+01	-4.973800e+00	0.0	-1.859553e+01	-7.362490e+00	0.0	-1.752613e+01	-9.635080e+00	0.0	-1.618034e+01	-1.175571e+01	0.0	-1.457937e+01	-1.369094e+01	0.0	-1.274848e+01	-1.541027e+01	0.0	-1.071653e+01	-1.688656e+01	0.0	-8.515580e+00	-1.809654e+01	0.0	-6.180340e+00	-1.902113e+01	0.0	-3.747620e+00	-1.964575e+01	0.0	-1.255810e+00	-1.996053e+01	0.0	1.255810e+00	-1.996053e+01	0.0	3.747630e+00	-1.964574e+01	0.0	6.180340e+00	-1.902113e+01	0.0	8.515590e+00	-1.809654e+01	0.0	1.071654e+01	-1.688656e+01	0.0	1.274848e+01	-1.541026e+01	0.0	1.457937e+01	-1.369094e+01	0.0	1.618034e+01	-1.175570e+01	0.0	1.752614e+01	-9.635070e+00	0.0	1.859553e+01	-7.362490e+00	0.0	1.937166e+01	-4.973790e+00	0.0	1.984229e+01	-2.506660e+00	0.0	2.000000e+01	0.000000e+00	0.0	6.093892e-02	-4.285144e-02	0.0	6.600410e-01	-5.844939e-02	0.0	4.255297e-01	8.863687e-02	0.0	6.904536e-01	6.677179e-02	0.0	3.791252e-01	-6.656260e-02	0.0	9.994589e-01	-7.258723e-04	0.0	9.985402e-01	-1.320872e-03	0.0	7.738251e-01	-4.634860e-02	0.0	6.897588e-01	-5.606349e-02	0.0	-1.367138e-03	6.233161e-03	0.0	7.467650e-01	-4.997311e-02	0.0	5.838090e-01	8.122916e-02	0.0	9.927651e-01	-3.598793e-03	0.0	9.898616e-01	-4.480982e-03	0.0	5.994275e-01	7.958836e-02	0.0	7.187102e-01	-5.322760e-02	0.0	-1.548094e-03	7.305687e-04	0.0	9.864673e-01	-5.441292e-03	0.0	9.825916e-01	-6.470515e-03	0.0	-1.358171e-03	-6.336027e-03	0.0	6.449375e-01	-5.947833e-02	0.0	8.244939e-01	-3.842106e-02	0.0	7.997632e-01	-4.246746e-02	0.0	3.482204e-01	8.660152e-02	0.0	8.478910e-01	-3.434813e-02	0.0	2.468390e-01	7.862192e-02	0.0	8.698983e-01	-3.032503e-02	0.0	1.001408e-02	2.079824e-02	0.0	8.904116e-01	-2.642047e-02	0.0	7.722818e-02	-4.682321e-02	0.0	9.093595e-01	-2.267674e-02	0.0	-1.865007e-03	-3.138557e-03	0.0	9.422484e-01	-1.580904e-02	0.0	9.266631e-01	-1.912583e-02	0.0	1.806769e-02	-2.637803e-02	0.0	4.256782e-01	-6.623083e-02	0.0	8.590773e-01	-3.232303e-02	0.0	9.560748e-01	-1.276843e-02	0.0	9.782290e-01	-7.589010e-03	0.0	9.680882e-01	-1.002215e-02	0.0	1.584746e-01	-5.900398e-02	0.0	9.000881e-01	-2.452666e-02	0.0	7.604299e-01	-4.820093e-02	0.0	9.971132e-01	-2.058079e-03	0.0	5.988429e-01	-6.197001e-02	0.0	4.413590e-01	-6.604490e-02	0.0	5.361230e-01	-6.418097e-02	0.0	4.728882e-01	-6.557080e-02	0.0	5.045102e-01	-6.495629e-02	0.0	4.886866e-01	-6.528085e-02	0.0	1.251652e-01	-5.514410e-02	0.0	2.799454e-02	-3.148915e-02	0.0	3.945492e-01	-6.649285e-02	0.0	4.640172e-02	-3.855324e-02	0.0	4.100682e-01	-6.638196e-02	0.0	3.187978e-01	-6.636792e-02	0.0	3.486567e-01	-6.657206e-02	0.0	3.367005e-02	-3.391128e-02	0.0	2.896281e-01	-6.592628e-02	0.0	9.346743e-01	-1.743395e-02	0.0	1.470184e-01	-5.780948e-02	0.0	1.948400e-01	-6.200962e-02	0.0	8.600599e-02	-4.867547e-02	0.0	1.048018e-01	-5.210645e-02	0.0	5.676108e-01	-6.321237e-02	0.0	1.702734e-01	-6.010386e-02	0.0	6.143295e-01	-6.122907e-02	0.0	8.803501e-01	-2.835590e-02	0.0	2.280418e-02	-2.897635e-02	0.0	9.951875e-01	-2.803889e-03	0.0	6.796488e-03	-1.820110e-02	0.0	1.798544e-02	2.626178e-02	0.0	9.182203e-01	-2.087471e-02	0.0	9.49388
[...]
POINT_DATA 5233

SCALARS Conservative_1 float 1
LOOKUP_TABLE default
1.252942e-02	5.609730e-03	4.422945e-03	3.534563e-03	2.974116e-03	2.553698e-03	2.226357e-03	1.967393e-03	1.762500e-03	1.600350e-03	1.473460e-03	1.375947e-03	1.303204e-03	1.251152e-03	1.216584e-03	1.195200e-03	1.185861e-03	1.181627e-03	1.182899e-03	1.189601e-03	1.205859e-03	1.226933e-03	1.255843e-03	1.294549e-03	1.340703e-03	1.396829e-03	1.457821e-03	1.525371e-03	1.594057e-03	1.662570e-03	1.728535e-03	1.784855e-03	1.834154e-03	1.866551e-03	1.888081e-03	1.891443e-03	1.882940e-03	1.857365e-03	1.821959e-03	1.772577e-03	1.717621e-03	1.653685e-03	1.588359e-03	1.518759e-03	1.451211e-03	1.383116e-03	1.319460e-03	1.258250e-03	1.202388e-03	1.150918e-03	1.104867e-03	1.063528e-03	1.026820e-03	9.955630e-04	9.676066e-04	9.447152e-04	9.240405e-04	9.071335e-04	8.911433e-04	8.775361e-04	8.635869e-04	8.505555e-04	8.357589e-04	8.208567e-04	8.027639e-04	7.831693e-04	7.592464e-04	7.324405e-04	7.005119e-04	6.642897e-04	6.223569e-04	5.744014e-04	5.202802e-04	4.587986e-04	3.901744e-04	3.134332e-04	2.276597e-04	1.331106e-04	2.824125e-05	-8.693013e-05	-2.141138e-04	-3.535569e-04	-5.067596e-04	-6.744653e-04	-8.587369e-04	-1.059962e-03	-1.280985e-03	-1.521850e-03	-1.784516e-03	-2.067988e-03	-2.370630e-03	-2.679443e-03	-2.992546e-03	-3.300645e-03	-3.444173e-03	-3.270892e-03	-3.008946e-03	-2.736086e-03	-2.246491e-03	-1.769950e-03	-1.349874e-03	-3.209631e-04	8.774504e-04	1.238626e-03	2.824068e-03	7.014038e-03	1.071759e-02	1.142885e-02	1.028604e-02	9.028237e-03	8.057616e-03	7.217264e-03	6.453220e-03	5.770640e-03	5.173884e-03	4.660333e-03	4.217066e-03	3.840124e-03	3.512692e-03	3.227060e-03	2.978086e-03	2.750766e-03	2.548289e-03	2.364037e-03	2.199690e-03	2.056317e-03	1.927657e-03	1.811840e-03	1.712465e-03	1.623379e-03	1.548742e-03	1.478804e-03	1.412325e-03	1.347112e-03	1.287971e-03	1.249710e-03	1.240112e-03	1.276697e-03	1.376448e-03	1.555780e-03	1.741655e-03	1.875911e-03	1.899083e-03	1.853406e-03	1.784860e-03	1.712913e-03	1.635476e-03	1.545542e-03	1.441834e-03	1.323980e-03	1.199515e-03	1.065783e-03	9.292921e-04	7.858278e-04	6.354375e-04	4.832420e-04	3.237255e-04	1.658699e-04	6.974446e-06	-1.527169e-04	-3.086673e-04	-4.655857e-04	-6.161149e-04	-7.666116e-04	-9.093678e-04	-1.051191e-03	-1.184630e-03	-1.316507e-03	-1.439810e-03	-1.561536e-03	-1.675165e-03	-1.787986e-03	-1.892597e-03	-1.996872e-03	-2.096700e-03	-2.193043e-03	-2.287342e-03	-2.379019e-03	-2.473812e-03	-2.569453e-03	-2.672812e-03	-2.776177e-03	-2.880087e-03	-2.985517e-03	-3.102317e-03	-3.230664e-03	-3.375801e-03	-3.538561e-03	-3.723546e-03	-3.933866e-03	-4.175193e-03	-4.453389e-03	-4.777388e-03	-5.157599e-03	-5.610625e-03	-6.158728e-03	-6.960196e-03	-7.723513e-03	-1.341375e-02	-8.538262e-04	-7.450142e-06	-7.077287e-06	-6.586064e-06	-6.091118e-06	-5.430643e-06	-4.706538e-06	-3.803177e-06	-2.785997e-06	-1.681873e-06	-3.817452e-07	1.425657e-06	3.584264e-06	6.049431e-06	8.330931e-06	9.768421e-06	1.096272e-05	1.133879e-05	1.126701e-05	1.081721e-05	1.016579e-05	9.506337e-06	7.939382e-06	8.175436e-06	1.348447e-05	9.400518e-06	7.563881e-06	8.407104e-06	6.593289e-06	-5.843987e-07	-1.103224e-06	-1.675237e-06	-2.480995e-06	-2.975948e-06	-3.561384e-06	-4.247037e-06	-4.860555e-06	-4.920859e-06	-5.405260e-06	-5.093579e-06	-5.824582e-06	-6.922936e-06	-7.580250e-06	-8.048640e-06	-8.321261e-06	-8.446175e-06	-8.485253e-06	-8.428200e-06	-8.255224e-06	-7.984434e-06	-7.770989e-06	-7.083104e-04	1.583161e-03	1.935115e-03	-3.769771e-04	7.923842e-04	9.432716e-03	6.419994e-03	1.566808e-03	1.647827e-03	-2.864428e-04	1.638551e-03	7.513994e-04	2.942172e-03	2.479735e-03	5.931644e-04	1.667792e-03	-1.669166e-03	2.140293e-03	1.884090e-03	-2.811049e-03	1.538333e-03	1.359299e-03	1.466589e-03	1.991239e-03	1.264265e-03	1.762858e-03	1.194686e-03	9.327110e-03	1.159029e-03	-4.078943e-04	1.154613e-03	-2.486149e-03	1.182815e-03	1.157217e-03	-2.249818e-03	8.564195e-04	1.225280e-03	1.259764e-03	1.686364e-03	1.415214e-03	3.550359e-04	1.153990e-03	1.608402e-03	4.608523e-03	1.370410e-03	8.843889e-04	1.137035e-03	9.516128e-04	1.036393e-03	9.920690e-04	1.382824e-04	-1.728434e-03	8.108430e-04	-1.066914e-03	8.325167e-04	7.308675e-04	7.600832e-04	-1.490495e-03	6.997029e-04	1.165721e-03	2.908380e-04	5.085028e-04	-2.770315e-04	-4.922693e-05	1.250600e-03	4.126542e-04	1.430133e-03	1.172043e-03	-1.981983e-03	3.601976e-03	-3.056160e-03	8.498625e-03	1.155618e-03	1.213242e-03	1.533102e-03	3.248222e-04	1.308543e-03	6.387767e-04	1.192929e-03	1.659821e-03	1.519420e-03	4.929575e-05	5.824489e-04	1.310928e-03	1.621264e-03	-8.801198e-04	-3.266219e-03	-2.523615e-03	7.752443e-04	4.635354e-04	1.331902e-02	6.128453e-04	-1.576325e-04	7.154231e-04	6.620415e-04	9.158388e-04	1.664633e-03	-1.208785e-03	-3.038446e-03	1.200733e-03	-2.017767e-03	7.045502e-03	4.843742e-03	5.835952e-03	2.882588e-03	1.988313e-03	-7.226722e-03	1.337937e-03	1.697636e-03	-3.811434e-03	-3.432039e-03	-2.369564e-03	1.588678e-03	1.869870e-03	2.046163e-03	-2.798782e-03	-2.589320e-03	3.780035e-03	-4.045965e-03	-3.275985e-03	-3.014744e-03	3.280656e-03	4.437201e-03	1.652827e-03	1.712065e-03	2.191923e-03	1.757356e-03	1.791927e-03	2.025179e-03	2.421015e-03	2.711793e-03	2.676099e-04	2.010857e-03	1.875023e-03	-5.799213e-05	9.079064e-04	-9.739736e-04	-6.837829e-04	-1.498040e-03	-1.245552e-03	-1.953727e-03	-1.734026e-03	-2.478056e-03	-2.162955e-03	-3.138526e-03	-2.696905e-03	-3.608788e-03	-2.059759e-03	-2.265914e-03	-1.617019e-03	-1.844858e-03	-1.111282e-03	-1.373196e-03	-5.312993e-04	-8.301935e-04	1.049597e-04	-2.177976e-04	1.057345e-03	4.307674e-04	1.937534e-03	1.817875e-03	2.299944e-03	2.095089e-03	5.309342e-03	2.557860e-03	9.397064e-03	6.420004e-03	5.481440e-04	2.696439e-03	1.325568e-03	1.412037e-03	7.451002e-04	1.085026e-03	5.440884e-04	7.705624e-03	6.728233e-03	3.514776e-03	4.085097e-03	1.670293e-03	3.071653e-03	-4.321516e-03	-4.649463e-03	1.675153e-03	-5.052614e-03	-5.564554e-03	1.881887e-03	2.034756e-03	-2.904141e-03	-1.534409e-02	-8.889727e-03	-1.149656e-02	1.485746e-03	-1.270153e-03	-6.248476e-03	1.466764e-03	-3.255734e-03	-2.792187e-03	-5.514277e-04	2.186362e-04	6.816806e-04	4.028597e-03	-5.293736e-04	-1.209681e-03	5.633415e-04	1.442270e-03	1.071275e-03	-2.826194e-03	1.003451e-03	1.424265e-03	1.364421e-03	2.317833e-03	6.149827e-04	1.139470e-03	1.206754e-03	-3.395116e-04	-2.813002e-03	4.334759e-04	-2.375526e-03	1.245199e-03	1.916865e-04	1.454439e-03	1.359823e-03	7.762008e-04	-4.613889e-04	6.814978e-04	1.072683e-03	1.326510e-03	6.060214e-03	7.199044e-03	1.355691e-05	-1.796884e-03	3.195648e-03	-1.474765e-04	2.550777e-03	-2.123144e-03	-4.838592e-03	2.245852e-03	1.584006e-03	-3.129773e-03	-2.228409e-03	-5.320686e-03	-3.278475e-03	-4.134194e-03	2.136681e-03	2.222616e-03	2.186544e-03	3.370335e-03	1.394070e-03	3.957079e-04	7.679424e-03	2.767807e-03	4.985797e-03	-3.642098e-03	-5.938073e-03	-2.332087e-03	2.513533e-04	-6.293797e-03	-7.735199e-03	-6.784261e-03	2.898879e-03	-1.270789e-04	-3.029104e-03	-2.229274e-03	-1.895521e-03	-2.135357e-03	3.120074e-03	-7.403584e-04	5.002554e-03	3.287157e-03	2.128993e-03	1.014040e-03	2.005475e-03	1.094230e-03	8.393210e-04	2.727916e-03	-2.579687e-03	7.481231e-04	2.159839e-03	1.169632e-03	2.054200e-03	1.113163e-03	1.080755e-03	-5.949641e-04	1.069810e-03	1.078959e-03	1.138402e-03	-1.672620e-03	1.182634e-03	1.329069e-03	1.768441e-03	4.879794e-05	1.423236e-03	1.398093e-03	4.074243e-03	8.070416e-04	8.413218e-04	8.800903e-04	-1.899398e-03	7.008671e-04	7.239380e-04	6.301280e-04	-1.258049e-03	1.089303e-03	1.108425e-03	1.238760e-04	-2.279797e-04	1.065212e-03	1.219351e-03	1.439617e-03	1.582506e-03	1.452548e-03	1.444551e-03	-1.269259e-04	-3.405888e-05	1.115485e-03	1.169173e-03	-1.072114e-03	-8.991521e-04	-2.609068e-03	6.466271e-04	6.629364e-04	3.056487e-04	3.533910e-04	4.658922e-04	4.953288e-04	5.820146e-04	5.983683e-04	5.206003e-04	-1.660929e-03	-3.129923e-03	5.383106e-03	-4.449758e-03	1.450523e-03	1.713388e-03	1.829092e-03	1.930566e-03	-3.867227e-03	-3.448174e-03	-2.658774e-03	2.012476e-03	2.079764e-03	2.176269e-03	-2.548491e-03	-2.996174e-03	4.307822e-03	4.625936e-03	2.092216e-03	2.062353e-03	2.652994e-03	2.895180e-03	3.037272e-03	-1.314232e-03	-7.657489e-04	-6.188263e-04	-1.186102e-03	-1.682731e-03	-2.439135e-03	-2.017524e-03	-1.907902e-03	-1.562442e-03	-1.442475e-03	-1.049783e-03	-9.118968e-04	-4.643062e-04	-3.091449e-04	1.796773e-04	3.443726e-04	1.158511e-03	1.308302e-03	5.115212e-04	6.771546e-04	2.242644e-03	2.307332e-03	2.378714e-03	2.460848e-03	7.677266e-03	5.814238e-03	6.267779e-03	1.287056e-03	1.245072e-03	9.216380e-04	9.673423e-04	5.027559e-04	6.730101e-03	3.565472e-03	3.782641e-03	2.149082e-03	2.085346e-03	2.193490e-03	2.225840e-03	-2.877185e-03	-2.764892e-03	1.270859e-03	1.315998e-03	-1.458051e-03	-3.027432e-03	5.438605e-04	-2.605706e-03	5.829175e-04	4.528932e-04	1.183526e-03	8.616131e-04	9.769431e-04	-4.746029e-03	-4.394786e-03	-3.240271e-03	7.566923e-04	-5.124459e-03	-9.572845e-03	-8.955383e-03	3.569055e-03	-1.649127e-03	-2.022046e-03	-1.794462e-03	-4.003376e-04	9.908545e-04	2.219514e-03	1.197774e-03	6.857235e-03	-2.797134e-03	1.261648e-03	-2.949725e-03	1.265459e-03	-2.231256e-03	9.968637e-04	-2.626469e-03	5.091727e-04	1.015257e-03	1.246640e-03	2.522672e-03	-2.438068e-03	-3.837043e-03	1.637451e-03	-2.946899e-03	2.041681e-04	-5.630054e-03	1.775725e-03	2.393817e-03	2.463757e-03	2.873046e-03	4.243245e-03	-9.617037e-03	-2.804700e-03	-7.609650e-04	6.299144e-03	-1.305194e-03	1.202649e-03	-5.122747e-04	-2.038593e-03	9.368706e-05	6.817044e-04	-1.812161e-03	5.003300e-03	-1.632542e-03	-1.143420e-03	3.937941e-05	-4.096308e-03	-3.086237e-03	-2.166883e-03	-2.063638e-03	2.501327e-03	2.432671e-03	2.443713e-03	3.479950e-03	1.198121e-03	1.226916e-03	2.863980e-04	6.116065e-03	2.971381e-03	-3.610040e-03	-6.340463e-03	2.822712e-03	-2.480652e-04	-2.931431e-03	-2.353230e-03	-1.610683e-03	5.870056e-03	6.808281e-03	1.293400e-03	1.950245e-03	1.037270e-03	6.538540e-04	2.267275e-03	1.065253e-03	1.037309e-03	9.832407e-04	9.749388e-04	-7.683134e-04	-6.351208e-04	9.689867e-04	9.709442e-04	1.078655e-03	1.131774e-03	1.731583e-03	1.233946e-03	1.214796e-03	2.944516e-03	7.138085e-04	7.456313e-04	6.034659e-04	6.280809e-04	-1.420011e-03	1.011127e-03	1.038884e-03	-3.932903e-05	3.025793e-05	9.060642e-04	9.498633e-04	1.408049e-03	1.553085e-03	1.265950e-03	1.256418e-03	-2.973983e-04	-2.029177e-04	-1.164392e-04	9.962731e-04	1.040506e-03	-1.239932e-03	-1.070343e-03	-9.122246e-04	5.256153e-04	5.446295e-04	5.620419e-04	1.501766e-04	2.006783e-04	2.469978e-04	3.235954e-04	3.542501e-04	4.732533e-04	4.905108e-04	3.842114e-04	5.029696e-03	1.900429e-03	2.010849e-03	-3.414132e-03	2.099434e-03	2.174131e-03	2.229935e-03	2.286765e-03	-2.482760e-03	4.483086e-03	4.748733e-03	2.382335e-03	2.403697e-03	3.079576e-03	3.199121e-03	3.332980e-03	-5.859865e-04	-2.375996e-03	-2.268304e-03	-1.961116e-03	-1.852725e-03	-1.744816e-03	-1.510914e-03	-1.396080e-03	-1.273042e-03	-1.012118e-03	-8.749966e-04	-7.328143e-04	-4.350802e-04	-2.806016e-04	-1.215098e-04	3.690056e-04	1.351065e-03	1.496157e-03	5.364608e-04	7.025750e-04	8.684168e-04	2.500438e-03	2.564296e-03	2.632629e-03	2.707394e-03	2.784701e-03	5.320524e-03	5.613156e-03	1.156296e-03	1.126119e-03	1.093597e-03	7.807350e-04	8.218042e-04	5.897529e-03	6.144486e-03	3.644448e-03	3.824248e-03	4.024596e-03	2.483973e-03	2.298971e-03	2.333144e-03	2.389330e-03	-2.821973e-03	-2.703804e-03	-2.593858e-03	1.085443e-03	1.126137e-03	1.165481e-03	4.091000e-04	4.332383e-04	-2.588309e-03	-4.545694e-04	-5.107013e-03	-3.721091e-03	7.883620e-04	-1.767137e-03	3.772436e-03	8.862246e-04	9.069896e-04	-1.540070e-03	-4.477568e-03	1.885455e-03	-2.737107e-03	4.885679e-03	-2.564712e-03	-3.016956e-03	-4.750499e-03	-7.787441e-04	3.444533e-04	-1.529171e-04	-4.863179e-03	1.634817e-03	1.048868e-03	5.498394e-06	-1.898904e-03	5.021206e-04	-5.567657e-04	5.762609e-04	3.586303e-04	-3.946928e-03	1.332426e-03	-2.879470e-03	-2.754331e-03	-9.946730e-04	3.135251e-03	2.636242e-03	1.755661e-03	4.379687e-03	9.065818e-04	-6.586291e-03	-4.199110e-03	2.384144e-03	1.211105e-03	-2.080712e-03	1.116584e-03	-2.680228e-03	1.107846e-03	1.126934e-03	-2.257528e-03	1.947417e-03	-2.424288e-03	-1.486510e-03	1.765160e-03	2.679132e-03	-1.305661e-03	3.993992e-03	1.842660e-04	-2.006317e-03	2.595360e-03	2.702127e-03	2.674780e-03	1.080884e-03	1.086188e-03	-3.515069e-03	2.471027e-03	8.838063e-04	-2.764461e-03	-2.431839e-03	-1.713436e-03	1.127609e-03	1.583395e-03	1.163112e-03	9.454318e-04	9.214734e-04	8.907745e-04	8.823327e-04	-7.891259e-04	-6.683891e-04	8.744933e-04	8.738198e-04	8.804230e-04	1.005796e-03	1.059488e-03	1.096572e-03	1.060703e-03	2.128524e-03	6.077832e-04	6.402267e-04	5.226683e-04	5.506497e-04	9.322018e-04	9.632421e-04	-1.196974e-04	-5.799482e-05	8.179247e-04	1.313376e-03	1.437692e-03	1.115227e-03	1.097304e-03	-3.591086e-04	-2.739691e-04	-1.907497e-04	8.688340e-04	8.975936e-04	-1.373489e-03	-1.212547e-03	-1.058513e-03	-9.184943e-04	4.179551e-04	4.387633e-04	4.576990e-04	4.797192e-04	5.574602e-05	1.069816e-04	1.486073e-04	1.898180e-04	2.232011e-04	3.994810e-04	3.782478e-04	2.568259e-04	2.015023e-03	-3.331644e-03	-3.166907e-03	2.111229e-03	2.195476e-03	2.263265e-03	2.314406e-03	2.345862e-03	4.560927e-03	4.736528e-03	2.620881e-03	2.633381e-03	3.233889e-03	3.338807e-03	3.454763e-03	3.581959e-03	-2.304920e-03	-2.202955e-03	-2.102288e-03	-1.905992e-03	-1.804496e-03	-1.698203e-03	-1.591422e-03	-1.365597e-03	-1.242603e-03	-1.132757e-03	-8.686697e-04	-7.232596e-04	-5.879888e-04	-4.357164e-04	-2.913721e-04	-1.326767e-04	2.104291e-05	1.614016e-03	1.471837e-03	5.086197e-04	6.736336e-04	8.392017e-04	1.009544e-03	2.680248e-03	2.741765e-03	2.814460e-03	2.892182e-03	2.966590e-03	3.047760e-03	4.903666e-03	5.059514e-03	1.018094e-03	9.888752e-04	9.674993e-04	6.688784e-04	7.128049e-04	7.409582e-04	5.192713e-03	5.266395e-03	5.216251e-03	3.720853e-03	3.870988e-03	4.037798e-03	4.207967e-03	2.364923e-03	2.389536e-03	2.427652e-03	2.498081e-03	-2.411455e-03	-2.634111e-03	-2.525192e-03	9.490382e-04	9.736318e-04	1.022211e-03	1.039170e-03	2.847523e-04	3.127366e-04	3.351368e-04	-2.082506e-03	-4.597766e-03	1.028114e-03	-7.194687e-03	-2.228302e-03	9.926903e-04	-4.956308e-04	-2.352539e-03	-3.383662e-03	-2.531050e-03	-1.612657e-03	-6.923938e-05	3.331610e-03	3.158829e-03	-7.110005e-05	-1.714466e-03	-2.064433e-03	-2.173320e-03	-2.062562e-03	-2.597112e-03	1.920665e-03	2.643677e-03	1.097105e-03	1.492377e-03	8.326871e-04	9.401117e-04	4.358867e-04	-4.146136e-03	-2.261598e-03	-2.562334e-03	1.481872e-03	1.743200e-03	3.787967e-04	-7.940859e-04	1.948325e-03	6.959069e-04	2.546787e-03	-3.951903e-03	-5.892637e-04	-7.450016e-03	-3.558708e-03	-2.239817e-03	4.014815e-03	4.513095e-03	8.204396e-04	-1.466851e-03	-2.552668e-03	3.914206e-03	-2.443938e-03	-2.799570e-03	-7.333501e-04	-2.904269e-03	-5.998665e-04	-1.932802e-03	3.123841e-04	2.817318e-04	-3.741969e-03	1.257749e-03	-2.679649e-03	1.368490e-03	9.783992e-04	-1.257252e-03	2.766897e-03	2.802858e-03	2.807038e-03	9.483734e-04	2.051722e-03	8.687814e-04	-2.442817e-03	-1.772104e-03	8.451081e-04	8.388242e-04	8.172101e-04	8.133936e-04	-6.924983e-04	-8.012314e-04	7.964207e-04	7.985840e-04	7.955106e-04	7.970959e-04	9.225133e-04	9.705017e-04	9.683549e-04	1.597008e-03	5.214600e-04	5.448904e-04	4.666169e-04	4.849957e-04	8.541649e-04	8.839053e-04	-1.862572e-04	-1.164438e-04	1.177994e-03	1.269236e-03	9.782302e-04	-4.070117e-04	-3.183930e-04	-2.515338e-04	7.664555e-04	-1.320872e-03	-1.175974e-03	-1.041356e-03	-9.179120e-04	3.254309e-04	3.544891e-04	3.676045e-04	3.975453e-04	4.145078e-04	-8.162238e-06	2.836038e-05	8.080039e-05	1.089613e-04	1.535748e-04	-3.220769e-03	-3.069536e-03	-2.930244e-03	2.072779e-03	2.153874e-03	2.242890e-03	2.297683e-03	2.352652e-03	4.366891e-03	4.445782e-03	2.783793e-03	2.761090e-03	3.419056e-03	3.516759e-03	3.636466e-03	-2.150186e-03	-2.062491e-03	-1.960930e-03	-1.875831e-03	-1.767637e-03	-1.673385e-03	-1.560180e-03	-1.404358e-03	-1.223714e-03	-1.046497e-03	-5.187660e-04	-2.323485e-04	6.798010e-05	6.968859e-04	1.010986e-03	2.783095e-03	2.824603e-03	2.896739e-03	2.979192e-03	3.052715e-03	3.141633e-03	3.230440e-03	4.502630e-03	4.547134e-03	9.000549e-04	8.896195e-04	8.679979e-04	5.745189e-04	6.283248e-04	4.562287e-03	4.501095e-03	4.313869e-03	3.757357e-03	3.883482e-03	4.019952e-03	4.145695e-03	4.256790e-03	2.376727e-03	2.408491e-03	2.427600e-03	2.468759e-03	-2.455415e-03	-2.354873e-03	8.357348e-04	8.983711e-04	1.767267e-04	2.159969e-04	2.334440e-04	2.670150e-04	4.646450e-03	-7.483198e-03	-2.149097e-03	-2.020357e-03	1.073757e-03	9.478293e-04	-3.515980e-03	-1.178619e-03	-2.699543e-03	1.839470e-03	1.055701e-03	-2.417754e-03	-1.513929e-03	-2.036958e-03	2.504796e-03	-4.531965e-03	1.658019e-03	-6.653745e-04	-1.914087e-03	9.007401e-04	5.707273e-04	-3.356014e-03	2.360706e-04	7.533533e-04	7.358279e-04	7.515893e-04	-5.226198e-04	-9.682349e-05	-2.382528e-03	3.966284e-04	-7.037371e-04	-6.113933e-04	3.479033e-03	-3.075294e-03	-2.156086e-03	-1.611880e-03	2.496543e-03	8.586053e-04	-7.080302e-03	-3.210356e-03	-2.135515e-03	-2.453062e-03	1.124327e-03	8.622282e-04	1.813633e-03	2.026715e-03	-3.694653e-03	-1.778744e-03	-4.576433e-03	-2.334431e-03	4.062304e-03	-1.389198e-03	-2.284818e-03	-2.225178e-03	1.349229e-03	-1.644771e-03	-2.590466e-03	-2.487102e-03	1.580238e-03	2.687555e-03	2.822056e-03	8.564924e-04	7.693542e-04	-2.348312e-05	-1.785776e-03	7.572861e-04	7.379389e-04	-8.053483e-04	7.273453e-04	7.198911e-04	8.225640e-04	1.209583e-03	4.482606e-04	7.691832e-04	7.932289e-04	-2.019153e-04	9.982385e-04	8.523545e-04	8.380967e-04	-3.971768e-04	-3.001922e-04	6.317854e-04	-1.259661e-03	-1.127928e-03	-1.014678e-03	-9.095822e-04	2.809967e-04	3.269517e-04	3.557895e-04	-8.066774e-06	6.762423e-05	-2.943307e-03	-2.818122e-03	2.198162e-03	2.316924e-03	4.124014e-03	2.841107e-03	3.614578e-03	-1.048762e-03	-1.971563e-03	-1.781809e-03	-1.583353e-03	-1.391484e-03	-1.219423e-03	-8.394408e-04	-5.855472e-04	-3.161796e-04	-3.741694e-05	2.529022e-04	5.520619e-04	8.514967e-04	1.121730e-03	2.886619e-03	3.011063e-03	3.144828e-03	3.249607e-03	3.346050e-03	4.088299e-03	4.049715e-03	8.152635e-04	7.999652e-04	7.722289e-04	4.826028e-04	5.168587e-04	3.982046e-03	3.831528e-03	3.555665e-03	3.133168e-03	3.725873e-03	3.831221e-03	3.936143e-03	4.025023e-03	4.078023e-03	4.167913e-03	2.383288e-03	2.418995e-03	-2.402484e-03	-2.290697e-03	6.938913e-04	8.006767e-04	8.363604e-04	1.328260e-04	1.877099e-04	-3.784305e-03	3.554075e-03	3.541079e-03	-4.916404e-03	-1.030873e-03	-3.357483e-03	-3.173795e-03	1.526215e-03	-2.025987e-03	-1.754354e-03	2.122445e-03	1.226556e-03	6.281480e-04	-1.503833e-03	-2.352620e-03	-2.681551e-03	7.562421e-04	2.380108e-03	-4.209780e-03	6.448844e-04	-1.522364e-03	3.818240e-03	1.314000e-03	-1.955652e-03	3.101975e-04	6.653197e-04	6.887488e-04	5.323787e-04	7.471100e-04	7.728693e-04	-1.415572e-03	-1.306648e-03	-5.678005e-03	-3.032208e-03	-3.164679e-03	-2.482704e-03	2.662416e-03	1.180464e-03	7.497068e-04	-7.969542e-04	-6.426499e-03	-6.502603e-03	-2.181388e-03	7.229170e-04	-2.579046e-03	-3.125418e-04	8.070448e-04	-1.087927e-03	-1.856025e-03	4.788498e-04	-2.286384e-03	-7.121641e-04	-6.272465e-04	-2.909751e-03	-1.935121e-03	7.036751e-04	8.415611e-04	7.588352e-04	-2.336564e-03	2.420995e-03	-8.912066e-04	-2.135297e-03	-2.058086e-03	1.626050e-03	-1.641892e-03	-2.391812e-03	1.401939e-03	2.480669e-03	9.401242e-04	-2.279911e-05	-5.975351e-04	6.596227e-04	6.490395e-04	6.466795e-04	6.576236e-04	9.270738e-04	3.554653e-04	6.746233e-04	6.870995e-04	2.751800e-04	7.097725e-04	6.935102e-04	7.470695e-04	-5.295844e-04	-4.223709e-04	-3.343651e-04	-1.185363e-03	1.844690e-04	2.328886e-04	-2.366747e-04	-1.407212e-04	7.258090e-04	-2.793051e-03	1.846155e-03	2.038855e-03	3.528328e-03	-1.949370e-03	-1.761594e-03	-1.046579e-03	-1.566999e-03	-1.379884e-03	-1.208543e-03	-8.695552e-04	-6.549804e-04	-4.112092e-04	-1.543678e-04	1.121466e-04	3.897035e-04	6.717649e-04	2.809845e-03	2.874838e-03	2.949587e-03	3.076948e-03	3.243262e-03	3.400726e-03	3.660608e-03	3.559467e-03	7.308693e-04	6.753946e-04	4.008918e-04	4.359600e-04	3.439416e-03	3.241676e-03	2.925123e-03	2.501914e-03	1.963980e-03	3.623672e-03	3.703726e-03	3.779392e-03	3.825800e-03	3.834