# vtk DataFile Version 3.0
vtk output
ASCII
DATASET UNSTRUCTURED_GRID
POINTS 5233 float
9.997500e-01	-3.632909e-05	0.0	9.990000e-01	-1.452618e-04	0.0	9.977600e-01	-3.252008e-04	0.0	9.960200e-01	-5.774943e-04	0.0	9.937800e-01	-9.022942e-04	0.0	9.910500e-01	-1.298763e-03	0.0	9.878400e-01	-1.766726e-03	0.0	9.841300e-01	-2.311194e-03	0.0	9.799500e-01	-2.930640e-03	0.0	9.752800e-01	-3.631444e-03	0.0	9.701500e-01	-4.412625e-03	0.0	9.645400e-01	-5.280292e-03	0.0	9.584700e-01	-6.233365e-03	0.0	9.519400e-01	-7.272227e-03	0.0	9.449600e-01	-8.393908e-03	0.0	9.375400e-01	-9.593773e-03	0.0	9.296900e-01	-1.086609e-02	0.0	9.214000e-01	-1.220804e-02	0.0	9.127000e-01	-1.361074e-02	0.0	9.035800e-01	-1.507272e-02	0.0	8.940600e-01	-1.658877e-02	0.0	8.841500e-01	-1.815610e-02	0.0	8.738500e-01	-1.977361e-02	0.0	8.631800e-01	-2.143627e-02	0.0	8.521600e-01	-2.313752e-02	0.0	8.407700e-01	-2.487471e-02	0.0	8.290500e-01	-2.663345e-02	0.0	8.170100e-01	-2.840162e-02	0.0	8.046400e-01	-3.016792e-02	0.0	7.919700e-01	-3.191393e-02	0.0	7.790100e-01	-3.362378e-02	0.0	7.657800e-01	-3.528073e-02	0.0	7.522800e-01	-3.687177e-02	0.0	7.385200e-01	-3.838440e-02	0.0	7.245300e-01	-3.980643e-02	0.0	7.103200e-01	-4.113073e-02	0.0	6.958900e-01	-4.235375e-02	0.0	6.812700e-01	-4.347212e-02	0.0	6.664700e-01	-4.448693e-02	0.0	6.515000e-01	-4.540154e-02	0.0	6.363800e-01	-4.622067e-02	0.0	6.211300e-01	-4.695082e-02	0.0	6.057600e-01	-4.760016e-02	0.0	5.902800e-01	-4.817747e-02	0.0	5.747100e-01	-4.869148e-02	0.0	5.590600e-01	-4.915119e-02	0.0	5.433600e-01	-4.956464e-02	0.0	5.276100e-01	-4.993996e-02	0.0	5.118400e-01	-5.028359e-02	0.0	4.960500e-01	-5.060149e-02	0.0	4.802700e-01	-5.089775e-02	0.0	4.645100e-01	-5.117554e-02	0.0	4.487800e-01	-5.143670e-02	0.0	4.331100e-01	-5.168146e-02	0.0	4.175000e-01	-5.190932e-02	0.0	4.019700e-01	-5.211839e-02	0.0	3.865400e-01	-5.230586e-02	0.0	3.712300e-01	-5.246816e-02	0.0	3.560400e-01	-5.260130e-02	0.0	3.409900e-01	-5.270061e-02	0.0	3.261100e-01	-5.276113e-02	0.0	3.114000e-01	-5.277790e-02	0.0	2.968700e-01	-5.274582e-02	0.0	2.825500e-01	-5.265996e-02	0.0	2.684500e-01	-5.251559e-02	0.0	2.545700e-01	-5.230801e-02	0.0	2.409400e-01	-5.203324e-02	0.0	2.275700e-01	-5.168749e-02	0.0	2.144700e-01	-5.126729e-02	0.0	2.016600e-01	-5.076993e-02	0.0	1.891400e-01	-5.019238e-02	0.0	1.769300e-01	-4.953284e-02	0.0	1.650400e-01	-4.878952e-02	0.0	1.534900e-01	-4.796177e-02	0.0	1.422900e-01	-4.704883e-02	0.0	1.314400e-01	-4.604934e-02	0.0	1.209500e-01	-4.496296e-02	0.0	1.108500e-01	-4.379208e-02	0.0	1.011300e-01	-4.253503e-02	0.0	9.181000e-02	-4.119389e-02	0.0	8.290000e-02	-3.976997e-02	0.0	7.440000e-02	-3.826304e-02	0.0	6.633000e-02	-3.667657e-02	0.0	5.869000e-02	-3.501058e-02	0.0	5.149000e-02	-3.326708e-02	0.0	4.474000e-02	-3.144844e-02	0.0	3.844000e-02	-2.955433e-02	0.0	3.260000e-02	-2.758711e-02	0.0	2.723000e-02	-2.554977e-02	0.0	2.232000e-02	-2.343708e-02	0.0	1.790000e-02	-2.126113e-02	0.0	1.395000e-02	-1.901092e-02	0.0	1.049000e-02	-1.669561e-02	0.0	7.520000e-03	-1.431461e-02	0.0	5.040000e-03	-1.186637e-02	0.0	3.050000e-03	-9.347302e-03	0.0	1.560000e-03	-6.769269e-03	0.0	5.600000e-04	-4.108233e-03	0.0	6.000000e-05	-1.363608e-03	0.0	0.000000e+00	0.000000e+00	0.0	6.000000e-05	1.350236e-03	0.0	5.600000e-04	4.050826e-03	0.0	1.560000e-03	6.663226e-03	0.0	3.050000e-03	9.195473e-03	0.0	5.040000e-03	1.167583e-02	0.0	7.520000e-03	1.409653e-02	0.0	1.049000e-02	1.646478e-02	0.0	1.395000e-02	1.878581e-02	0.0	1.790000e-02	2.106403e-02	0.0	2.232000e-02	2.329392e-02	0.0	2.723000e-02	2.549065e-02	0.0	3.260000e-02	2.764558e-02	0.0	3.844000e-02	2.976800e-02	0.0	4.474000e-02	3.185849e-02	0.0	5.149000e-02	3.391797e-02	0.0	5.869000e-02	3.595015e-02	0.0	6.633000e-02	3.795531e-02	0.0	7.440000e-02	3.993367e-02	0.0	8.290000e-02	4.188739e-02	0.0	9.181000e-02	4.381361e-02	0.0	1.011300e-01	4.571359e-02	0.0	1.108500e-01	4.758588e-02	0.0	1.209500e-01	4.942683e-02	0.0	1.314400e-01	5.123782e-02	0.0	1.422900e-01	5.301272e-02	0.0	1.534900e-01	5.474871e-02	0.0	1.650400e-01	5.644398e-02	0.0	1.769300e-01	5.809472e-02	0.0	1.891400e-01	5.969553e-02	0.0	2.016600e-01	6.124223e-02	0.0	2.144700e-01	6.272926e-02	0.0	2.275700e-01	6.415328e-02	0.0	2.409400e-01	6.550849e-02	0.0	2.545700e-01	6.679020e-02	0.0	2.684500e-01	6.799357e-02	0.0	2.825500e-01	6.911218e-02	0.0	2.968700e-01	7.014214e-02	0.0	3.114000e-01	7.107860e-02	0.0	3.261100e-01	7.191555e-02	0.0	3.409900e-01	7.264840e-02	0.0	3.560400e-01	7.327286e-02	0.0	3.712300e-01	7.378330e-02	0.0	3.865400e-01	7.417483e-02	0.0	4.019700e-01	7.444303e-02	0.0	4.175000e-01	7.458295e-02	0.0	4.331100e-01	7.458992e-02	0.0	4.487800e-01	7.445955e-02	0.0	4.645100e-01	7.418745e-02	0.0	4.802700e-01	7.376991e-02	0.0	4.960500e-01	7.320341e-02	0.0	5.118400e-01	7.248482e-02	0.0	5.276100e-01	7.161270e-02	0.0	5.433600e-01	7.058503e-02	0.0	5.590600e-01	6.940265e-02	0.0	5.747100e-01	6.806549e-02	0.0	5.902800e-01	6.657731e-02	0.0	6.057600e-01	6.494175e-02	0.0	6.211300e-01	6.316504e-02	0.0	6.363800e-01	6.125402e-02	0.0	6.515000e-01	5.921698e-02	0.0	6.664700e-01	5.706516e-02	0.0	6.812700e-01	5.481151e-02	0.0	6.958900e-01	5.246892e-02	0.0	7.103200e-01	5.005129e-02	0.0	7.245300e-01	4.757686e-02	0.0	7.385200e-01	4.505941e-02	0.0	7.522800e-01	4.251466e-02	0.0	7.657800e-01	3.996213e-02	0.0	7.790100e-01	3.741749e-02	0.0	7.919700e-01	3.489399e-02	0.0	8.046400e-01	3.240819e-02	0.0	8.170100e-01	2.997405e-02	0.0	8.290500e-01	2.760884e-02	0.0	8.407700e-01	2.532127e-02	0.0	8.521600e-01	2.312328e-02	0.0	8.631800e-01	2.103157e-02	0.0	8.738500e-01	1.905016e-02	0.0	8.841500e-01	1.718895e-02	0.0	8.940600e-01	1.545535e-02	0.0	9.035800e-01	1.385019e-02	0.0	9.127000e-01	1.237271e-02	0.0	9.214000e-01	1.102010e-02	0.0	9.296900e-01	9.781662e-03	0.0	9.375400e-01	8.650401e-03	0.0	9.449600e-01	7.612208e-03	0.0	9.519400e-01	6.656126e-03	0.0	9.584700e-01	5.772587e-03	0.0	9.645400e-01	4.954359e-03	0.0	9.701500e-01	4.195689e-03	0.0	9.752800e-01	3.496291e-03	0.0	9.799500e-01	2.852720e-03	0.0	9.841300e-01	2.270023e-03	0.0	9.878400e-01	1.747228e-03	0.0	9.910500e-01	1.290667e-03	0.0	9.937800e-01	8.994899e-04	0.0	9.960200e-01	5.767420e-04	0.0	9.977600e-01	3.250644e-04	0.0	9.990000e-01	1.452495e-04	0.0	9.997500e-01	3.632890e-05	0.0	1.000000e+00	0.000000e+00	0.0	1.984229e+01	2.506660e+00	0.0	1.937166e+01	4.973800e+00	0.0	1.859553e+01	7.362490e+00	0.0	1.752613e+01	9.635070e+00	0.0	1.618034e+01	1.175571e+01	0.0	1.457937e+01	1.369094e+01	0.0	1.274848e+01	1.541027e+01	0.0	1.071654e+01	1.688656e+01	0.0	8.515590e+00	1.809654e+01	0.0	6.180340e+00	1.902113e+01	0.0	3.747630e+00	1.964575e+01	0.0	1.255810e+00	1.996053e+01	0.0	-1.255810e+00	1.996053e+01	0.0	-3.747630e+00	1.964574e+01	0.0	-6.180340e+00	1.902113e+01	0.0	-8.515590e+00	1.809654e+01	0.0	-1.071654e+01	1.688656e+01	0.0	-1.274848e+01	1.541026e+01	0.0	-1.457937e+01	1.369094e+01	0.0	-1.618034e+01	1.175570e+01	0.0	-1.752613e+01	9.635070e+00	0.0	-1.859553e+01	7.362490e+00	0.0	-1.937166e+01	4.973800e+00	0.0	-1.984229e+01	2.506660e+00	0.0	-2.000000e+01	0.000000e+00	0.0	-1.984229e+01	-2.506670e+00	0.0	-1.937166e+01	-4.973800e+00	0.0	-1.859553e+01	-7.362490e+00	0.0	-1.752613e+01	-9.635080e+00	0.0	-1.618034e+01	-1.175571e+01	0.0	-1.457937e+01	-1.369094e+01	0.0	-1.274848e+01	-1.541027e+01	0.0	-1.071653e+01	-1.688656e+01	0.0	-8.515580e+00	-1.809654e+01	0.0	-6.180340e+00	-1.902113e+01	0.0	-3.747620e+00	-1.964575e+01	0.0	-1.255810e+00	-1.996053e+01	0.0	1.255810e+00	-1.996053e+01	0.0	3.747630e+00	-1.964574e+01	0.0	6.180340e+00	-1.902113e+01	0.0	8.515590e+00	-1.809654e+01	0.0	1.071654e+01	-1.688656e+01	0.0	1.274848e+01	-1.541026e+01	0.0	1.457937e+01	-1.369094e+01	0.0	1.618034e+01	-1.175570e+01	0.0	1.752614e+01	-9.635070e+00	0.0	1.859553e+01	-7.362490e+00	0.0	1.937166e+01	-4.973790e+00	0.0	1.984229e+01	-2.506660e+00	0.0	2.000000e+01	0.000000e+00	0.0	6.093892e-02	-4.285144e-02	0.0	6.600410e-01	-5.844939e-02	0.0	4.255297e-01	8.863687e-02	0.0	6.904536e-01	6.677179e-02	0.0	3.791252e-01	-6.656260e-02	0.0	9.994589e-01	-7.258723e-04	0.0	9.985402e-01	-1.320872e-03	0.0	7.738251e-01	-4.634860e-02	0.0	6.897588e-01	-5.606349e-02	0.0	-1.367138e-03	6.233161e-03	0.0	7.467650e-01	-4.997311e-02	0.0	5.838090e-01	8.122916e-02	0.0	9.927651e-01	-3.598793e-03	0.0	9.898616e-01	-4.480982e-03	0.0	5.994275e-01	7.958836e-02	0.0	7.187102e-01	-5.322760e-02	0.0	-1.548094e-03	7.305687e-04	0.0	9.864673e-01	-5.441292e-03	0.0	9.825916e-01	-6.470515e-03	0.0	-1.358171e-03	-6.336027e-03	0.0	6.449375e-01	-5.947833e-02	0.0	8.244939e-01	-3.842106e-02	0.0	7.997632e-01	-4.246746e-02	0.0	3.482204e-01	8.660152e-02	0.0	8.478910e-01	-3.434813e-02	0.0	2.468390e-01	7.862192e-02	0.0	8.698983e-01	-3.032503e-02	0.0	1.001408e-02	2.079824e-02	0.0	8.904116e-01	-2.642047e-02	0.0	7.722818e-02	-4.682321e-02	0.0	9.093595e-01	-2.267674e-02	0.0	-1.865007e-03	-3.138557e-03	0.0	9.422484e-01	-1.580904e-02	0.0	9.266631e-01	-1.912583e-02	0.0	1.806769e-02	-2.637803e-02	0.0	4.256782e-01	-6.623083e-02	0.0	8.590773e-01	-3.232303e-02	0.0	9.560748e-01	-1.276843e-02	0.0	9.782290e-01	-7.589010e-03	0.0	9.680882e-01	-1.002215e-02	0.0	1.584746e-01	-5.900398e-02	0.0	9.000881e-01	-2.452666e-02	0.0	7.604299e-01	-4.820093e-02	0.0	9.971132e-01	-2.058079e-03	0.0	5.988429e-01	-6.197001e-02	0.0	4.413590e-01	-6.604490e-02	0.0	5.361230e-01	-6.418097e-02	0.0	4.728882e-01	-6.557080e-02	0.0	5.045102e-01	-6.495629e-02	0.0	4.886866e-01	-6.528085e-02	0.0	1.251652e-01	-5.514410e-02	0.0	2.799454e-02	-3.148915e-02	0.0	3.945492e-01	-6.649285e-02	0.0	4.640172e-02	-3.855324e-02	0.0	4.100682e-01	-6.638196e-02	0.0	3.187978e-01	-6.636792e-02	0.0	3.486567e-01	-6.657206e-02	0.0	3.367005e-02	-3.391128e-02	0.0	2.896281e-01	-6.592628e-02	0.0	9.346743e-01	-1.743395e-02	0.0	1.470184e-01	-5.780948e-02	0.0	1.948400e-01	-6.200962e-02	0.0	8.600599e-02	-4.867547e-02	0.0	1.048018e-01	-5.210645e-02	0.0	5.676108e-01	-6.321237e-02	0.0	1.702734e-01	-6.010386e-02	0.0	6.143295e-01	-6.122907e-02	0.0	8.803501e-01	-2.835590e-02	0.0	2.280418e-02	-2.897635e-02	0.0	9.951875e-01	-2.803889e-03	0.0	6.796488e-03	-1.820110e-02	0.0	1.798544e-02	2.626178e-02	0.0	9.182203e-01	-2.087471e-02	0.0	9.49388
[...]
POINT_DATA 5233

SCALARS Conservative_1 float 1
LOOKUP_TABLE default
4.282833e-01	2.168365e-01	1.770096e-01	1.476262e-01	1.284481e-01	1.137971e-01	1.021400e-01	9.268601e-02	8.493367e-02	7.850636e-02	7.312545e-02	6.859325e-02	6.472922e-02	6.142582e-02	5.857412e-02	5.609886e-02	5.393641e-02	5.191660e-02	5.001809e-02	4.828738e-02	4.688958e-02	4.571776e-02	4.475840e-02	4.398127e-02	4.330447e-02	4.279223e-02	4.232792e-02	4.199264e-02	4.166033e-02	4.137399e-02	4.110276e-02	4.075010e-02	4.043159e-02	3.995256e-02	3.947676e-02	3.884748e-02	3.821444e-02	3.744004e-02	3.668291e-02	3.581049e-02	3.498128e-02	3.406937e-02	3.322660e-02	3.232976e-02	3.151829e-02	3.068327e-02	2.993169e-02	2.918925e-02	2.851290e-02	2.786851e-02	2.727967e-02	2.672308e-02	2.619638e-02	2.572846e-02	2.526535e-02	2.486704e-02	2.446426e-02	2.411261e-02	2.374904e-02	2.342663e-02	2.308490e-02	2.277726e-02	2.243927e-02	2.212805e-02	2.177969e-02	2.144906e-02	2.107594e-02	2.071223e-02	2.030597e-02	1.989007e-02	1.944351e-02	1.896426e-02	1.846618e-02	1.792133e-02	1.735035e-02	1.674296e-02	1.608554e-02	1.539518e-02	1.465188e-02	1.386552e-02	1.302164e-02	1.212555e-02	1.116866e-02	1.014870e-02	9.058602e-03	7.898384e-03	6.658468e-03	5.337705e-03	3.940242e-03	2.453826e-03	9.237035e-04	-4.875715e-04	-2.276046e-03	-4.675091e-03	-2.171881e-03	6.091571e-03	8.009566e-03	2.563917e-03	-4.544911e-03	-1.111455e-02	-1.721816e-02	-3.051033e-02	-5.065617e-02	-6.709701e-02	-7.991430e-02	-1.001033e-01	-1.272337e-01	-1.482235e-01	-1.582740e-01	-1.621169e-01	-1.640341e-01	-1.650142e-01	-1.648659e-01	-1.632064e-01	-1.602991e-01	-1.565252e-01	-1.523686e-01	-1.482402e-01	-1.445329e-01	-1.413930e-01	-1.388385e-01	-1.369715e-01	-1.358370e-01	-1.353617e-01	-1.351826e-01	-1.350016e-01	-1.347387e-01	-1.344541e-01	-1.342451e-01	-1.341603e-01	-1.339897e-01	-1.337230e-01	-1.331714e-01	-1.323702e-01	-1.314766e-01	-1.305881e-01	-1.299031e-01	-1.289732e-01	-1.273069e-01	-1.242351e-01	-1.197319e-01	-1.127818e-01	-1.017276e-01	-8.832251e-02	-7.920706e-02	-7.685244e-02	-7.864667e-02	-8.107550e-02	-8.266728e-02	-8.359450e-02	-8.400416e-02	-8.408183e-02	-8.363342e-02	-8.282560e-02	-8.175837e-02	-8.039057e-02	-7.898865e-02	-7.735782e-02	-7.567427e-02	-7.394229e-02	-7.212373e-02	-7.038827e-02	-6.857939e-02	-6.691823e-02	-6.521409e-02	-6.369397e-02	-6.216483e-02	-6.084270e-02	-5.953260e-02	-5.844214e-02	-5.737991e-02	-5.655294e-02	-5.574570e-02	-5.519537e-02	-5.475227e-02	-5.450103e-02	-5.447724e-02	-5.466561e-02	-5.519315e-02	-5.598305e-02	-5.729441e-02	-5.891136e-02	-6.079957e-02	-6.288405e-02	-6.537097e-02	-6.818965e-02	-7.143310e-02	-7.505687e-02	-7.915852e-02	-8.379080e-02	-8.911082e-02	-9.527286e-02	-1.025383e-01	-1.111882e-01	-1.216501e-01	-1.344614e-01	-1.539476e-01	-1.711416e-01	-3.266391e-01	3.868240e-02	-1.096683e-04	-1.202281e-04	-1.301611e-04	-1.386478e-04	-1.490525e-04	-1.569689e-04	-1.657753e-04	-1.687988e-04	-1.630683e-04	-1.615847e-04	-1.675174e-04	-1.694278e-04	-1.723741e-04	-1.646949e-04	-1.463603e-04	-1.377924e-04	-1.194831e-04	-1.062402e-04	-9.162012e-05	-7.259016e-05	-4.617733e-05	-3.010718e-05	2.869502e-05	1.674808e-04	1.200595e-04	1.436492e-04	2.075001e-04	2.159242e-04	1.326317e-04	1.645893e-04	1.921035e-04	2.065666e-04	2.181745e-04	2.203232e-04	2.197637e-04	2.088868e-04	1.753168e-04	1.455365e-04	8.876603e-05	6.560767e-05	5.431939e-05	3.392411e-05	1.339268e-05	-7.882919e-06	-2.766747e-05	-4.512430e-05	-6.013514e-05	-7.454288e-05	-8.718999e-05	-9.905643e-05	9.766317e-03	3.207242e-02	-6.661884e-02	-6.021133e-02	2.146495e-02	3.333817e-01	2.387838e-01	3.719439e-02	3.357546e-02	-3.117098e-02	3.613547e-02	-6.847950e-02	1.265450e-01	1.106981e-01	-6.742381e-02	3.494402e-02	-1.309915e-02	9.872093e-02	8.936713e-02	4.062000e-03	3.130985e-02	3.930488e-02	3.820102e-02	-9.596767e-02	4.067102e-02	-1.095850e-01	4.246651e-02	-1.086730e-01	4.492831e-02	1.145796e-02	4.837327e-02	-1.705428e-03	5.671096e-02	5.225503e-02	1.642361e-03	2.252704e-02	4.149369e-02	6.256181e-02	8.183705e-02	7.054454e-02	1.625431e-02	4.652681e-02	3.670461e-02	1.812953e-01	2.894893e-02	2.294388e-02	2.612526e-02	2.385623e-02	2.492095e-02	2.437634e-02	1.476233e-02	4.324960e-03	2.179099e-02	7.810565e-03	2.215772e-02	2.026647e-02	2.084343e-02	5.563410e-03	1.970228e-02	5.436360e-02	1.579630e-02	1.748206e-02	1.221454e-02	1.357784e-02	2.747311e-02	1.669470e-02	2.973907e-02	4.358931e-02	3.021164e-03	1.485661e-01	-2.903766e-03	-1.331388e-01	5.030764e-02	5.941614e-02	7.566549e-02	-4.506518e-02	3.992734e-02	1.881734e-02	2.679223e-02	3.557846e-02	3.770495e-02	1.419269e-02	1.818338e-02	2.821341e-02	3.285620e-02	8.821225e-03	-3.583795e-03	3.062754e-04	2.113842e-02	1.709888e-02	4.503456e-01	1.851481e-02	1.292287e-02	1.997433e-02	1.912743e-02	2.338029e-02	3.429997e-02	-1.949261e-02	6.298195e-03	-7.069779e-02	-8.007709e-03	-1.405437e-01	-1.384265e-01	-1.424134e-01	-1.169460e-01	-6.708716e-02	-1.628187e-01	-7.092350e-02	-6.971076e-02	-8.084936e-02	-7.247973e-02	-5.338400e-02	-7.040928e-02	-6.752226e-02	-7.981665e-02	-5.918197e-02	-5.589788e-02	-1.274113e-01	-8.603900e-02	-6.903545e-02	-6.338862e-02	-1.210695e-01	-1.350311e-01	-1.057096e-01	-1.083366e-01	-1.134853e-01	-1.026788e-01	-6.868043e-02	-7.083515e-02	-1.145505e-01	-1.157731e-01	-6.513141e-02	-1.124880e-01	-1.114304e-01	-6.266364e-02	-6.935975e-02	-5.589482e-02	-5.792123e-02	-5.293167e-02	-5.421786e-02	-5.178754e-02	-5.211968e-02	-5.449583e-02	-5.211362e-02	-6.603292e-02	-5.748638e-02	-7.637658e-02	-5.186548e-02	-5.261600e-02	-5.243390e-02	-5.185680e-02	-5.498367e-02	-5.349779e-02	-5.901231e-02	-5.684240e-02	-6.388986e-02	-6.140103e-02	-7.014526e-02	-6.632470e-02	-1.120356e-01	-1.106248e-01	-1.140410e-01	-1.129664e-01	-1.410439e-01	-1.150580e-01	-1.249882e-01	-1.422081e-01	1.784718e-02	-6.498622e-02	6.622610e-02	3.871786e-02	2.054256e-02	2.550939e-02	-5.483534e-02	-1.376074e-01	-8.493154e-02	-1.239739e-01	-1.312277e-01	-1.070360e-01	-1.187052e-01	-9.220224e-02	-9.965063e-02	-1.043698e-01	-1.090286e-01	-1.212514e-01	-1.001609e-01	-8.914763e-02	-6.115788e-02	-3.821607e-01	-2.063780e-01	-2.753980e-01	3.050438e-02	6.724762e-03	-1.380564e-01	-7.084646e-02	1.369190e-03	-9.532069e-04	1.064161e-02	1.529840e-02	1.940907e-02	-1.109131e-01	-2.890458e-02	-1.972231e-02	1.701270e-02	2.990876e-02	4.723078e-02	-1.243706e-03	-5.697563e-02	2.922900e-02	3.395352e-02	1.049234e-01	1.776579e-02	3.866261e-02	3.684343e-02	1.129168e-02	3.830658e-03	1.574157e-02	1.113250e-03	6.298488e-02	1.414171e-02	3.065398e-02	2.777904e-02	2.020581e-02	1.067977e-02	1.885009e-02	4.365110e-02	3.461673e-02	-7.327188e-02	-1.116895e-01	-5.268913e-02	-4.831346e-02	-9.917810e-02	-5.191318e-02	-9.330343e-02	-4.973835e-02	-1.035650e-01	-7.185861e-02	-5.862925e-02	-6.524961e-02	-5.057002e-02	-1.151250e-01	-6.841762e-02	-8.727156e-02	-8.778468e-02	-7.660742e-02	-8.897286e-02	-1.014890e-01	2.846689e-02	1.544698e-02	-9.166264e-02	-9.480289e-02	-1.195552e-01	-7.631828e-02	-1.303402e-01	-5.155631e-02	1.448483e-02	-1.233490e-01	-1.759731e-01	-1.517503e-01	-5.540939e-02	-3.829925e-02	-2.872654e-03	-5.727274e-03	-9.952393e-03	2.341663e-03	1.494098e-01	9.284252e-03	1.941179e-01	1.378825e-01	-5.579248e-02	2.307424e-02	9.380740e-02	4.088915e-02	-5.641090e-02	1.190840e-01	-4.913478e-04	1.982275e-02	-5.378790e-02	3.767882e-02	-8.367365e-02	3.970418e-02	4.219519e-02	1.000924e-02	4.533365e-02	4.930514e-02	5.641826e-02	4.658687e-03	5.944573e-02	6.712049e-02	8.505654e-02	1.332274e-02	3.261241e-02	3.331679e-02	1.637761e-01	2.060086e-02	2.102275e-02	2.150159e-02	3.529149e-03	1.914211e-02	1.949296e-02	1.800440e-02	6.717173e-03	5.144044e-02	5.377101e-02	1.374577e-02	1.186402e-02	2.369387e-02	2.561257e-02	7.202024e-02	7.788251e-02	3.129641e-02	3.200496e-02	1.238297e-02	1.288306e-02	2.428469e-02	2.497170e-02	7.638438e-03	8.496175e-03	3.668909e-05	1.828401e-02	1.854607e-02	1.483635e-02	1.514961e-02	1.599974e-02	1.627332e-02	1.727024e-02	1.750104e-02	1.651766e-02	-1.357868e-02	-1.385602e-03	-1.208279e-01	-9.447844e-02	-5.847141e-02	-5.845624e-02	-5.824099e-02	-5.793850e-02	-8.128546e-02	-7.208814e-02	-5.609812e-02	-5.768237e-02	-5.719184e-02	-5.332907e-02	-5.433808e-02	-6.245417e-02	-1.143451e-01	-1.172752e-01	-8.653857e-02	-8.514929e-02	-9.400058e-02	-9.589511e-02	-9.733722e-02	-4.814328e-02	-4.947764e-02	-5.005490e-02	-4.841792e-02	-4.814219e-02	-5.281933e-02	-4.913557e-02	-4.864359e-02	-4.800061e-02	-4.807735e-02	-4.865819e-02	-4.908167e-02	-5.058629e-02	-5.127732e-02	-5.339191e-02	-5.419601e-02	-5.764619e-02	-5.814903e-02	-5.494133e-02	-5.566784e-02	-9.003093e-02	-9.090609e-02	-9.177923e-02	-9.255249e-02	-1.041709e-01	-1.207662e-01	-1.192952e-01	3.533029e-02	3.602995e-02	2.199118e-02	2.253726e-02	-4.511048e-02	-1.164043e-01	-1.042093e-01	-1.073968e-01	-7.972652e-02	-8.188685e-02	-5.765159e-02	-6.498006e-02	-6.007436e-02	-5.793667e-02	2.634673e-02	2.701971e-02	5.724494e-03	3.290263e-03	1.678357e-02	1.329683e-04	1.646960e-02	1.472761e-02	3.121222e-02	1.989231e-02	4.564715e-02	-1.000209e-01	-9.194702e-02	-6.659591e-02	-3.872789e-02	-1.088139e-01	-2.250270e-01	-2.047146e-01	1.492336e-01	7.296668e-03	2.975350e-03	-1.201570e-02	1.026498e-02	4.779505e-02	1.024916e-01	-4.781985e-02	2.524183e-01	-1.408507e-03	2.693109e-02	7.574743e-04	2.762219e-02	1.928201e-03	3.779541e-02	-3.189542e-05	1.542886e-02	3.663829e-02	2.619457e-02	1.133569e-01	9.024217e-04	-7.944051e-02	-4.862498e-02	-6.057048e-02	-4.545149e-02	-1.208296e-01	-4.856786e-02	-6.497712e-02	-5.061545e-02	-7.470823e-02	-9.437870e-02	-2.240466e-01	2.589094e-03	-2.564709e-02	-8.534349e-02	-1.855174e-02	6.234278e-02	9.802718e-03	-8.475311e-03	1.242698e-02	1.776606e-02	3.989144e-03	-6.215358e-02	-4.465741e-02	-4.371034e-02	-4.506743e-02	-8.520309e-02	-6.340291e-02	-4.808598e-02	-4.710427e-02	-5.619522e-02	-6.318395e-02	-6.846835e-02	-8.297970e-02	2.478458e-02	2.550348e-02	1.341326e-02	-7.538725e-02	-7.565066e-02	-7.448090e-02	-1.384348e-01	-4.845448e-02	-3.236894e-02	-1.870674e-03	-4.492374e-03	4.944644e-03	2.252092e-01	2.531469e-01	6.662496e-02	9.266804e-02	-4.735513e-02	1.741687e-02	-4.569459e-02	3.461056e-02	3.555196e-02	3.905061e-02	4.043809e-02	8.707421e-03	9.279888e-03	4.193981e-02	4.371700e-02	5.543043e-02	5.863652e-02	8.447033e-02	2.971260e-02	3.053693e-02	1.281490e-01	1.817268e-02	1.852870e-02	1.673961e-02	1.708638e-02	5.820391e-03	5.011689e-02	5.259884e-02	1.180672e-02	1.212141e-02	2.043559e-02	2.096240e-02	7.160619e-02	7.752706e-02	2.838290e-02	2.909335e-02	1.069771e-02	1.110293e-02	1.148537e-02	2.156039e-02	2.214677e-02	6.639805e-03	7.394837e-03	8.095165e-03	1.564584e-02	1.592825e-02	1.616481e-02	1.268370e-02	1.294110e-02	1.320071e-02	1.366416e-02	1.385519e-02	1.497123e-02	1.517197e-02	1.409899e-02	-9.910233e-02	-4.860699e-02	-4.859251e-02	-7.027462e-02	-4.861419e-02	-4.852468e-02	-4.789741e-02	-4.209768e-02	-5.214318e-02	-9.657612e-02	-9.815176e-02	-6.629783e-02	-6.730359e-02	-7.699427e-02	-7.868601e-02	-8.062496e-02	-4.396937e-02	-5.059484e-02	-4.917893e-02	-4.633620e-02	-4.560978e-02	-4.507857e-02	-4.416245e-02	-4.405311e-02	-4.387619e-02	-4.372800e-02	-4.372261e-02	-4.384671e-02	-4.420727e-02	-4.443417e-02	-4.475510e-02	-4.582278e-02	-4.824898e-02	-4.843603e-02	-4.624601e-02	-4.661848e-02	-4.708059e-02	-6.961729e-02	-7.077094e-02	-7.193061e-02	-7.298273e-02	-7.390694e-02	-9.926689e-02	-9.843869e-02	3.204375e-02	3.286339e-02	3.367230e-02	1.893350e-02	1.944370e-02	-9.624220e-02	-9.210802e-02	-8.561238e-02	-8.856110e-02	-9.159479e-02	-6.032335e-02	-3.877061e-02	-3.937168e-02	-4.431328e-02	-5.812713e-02	-5.590195e-02	-5.397029e-02	2.279632e-02	2.342857e-02	2.411637e-02	1.429807e-02	1.453775e-02	-3.727278e-04	9.217490e-03	-1.058674e-01	-7.549616e-02	1.806727e-02	-1.256426e-02	1.567496e-01	4.397277e-02	4.619265e-02	5.184201e-03	-9.195211e-02	-4.161499e-02	8.267507e-04	-6.146525e-02	5.931198e-05	-6.094778e-02	-9.777436e-02	-2.351033e-02	-4.059140e-02	-2.879154e-02	-8.787138e-02	1.003308e-01	2.942742e-02	1.083172e-02	3.582060e-03	1.448261e-02	8.893200e-03	1.541289e-02	1.276292e-02	-8.034955e-02	-4.146805e-02	-5.824720e-02	-5.587544e-02	-4.005874e-02	-5.940198e-02	-5.021400e-02	8.718399e-02	-7.774501e-02	3.496071e-02	-1.439475e-01	-8.584331e-02	1.114558e-01	6.455534e-02	2.724466e-03	2.419087e-02	-8.432269e-04	2.468179e-02	2.567429e-02	1.825615e-03	9.465064e-02	1.019931e-03	-4.155356e-02	-4.210558e-02	-4.003761e-02	-1.802334e-02	-5.198029e-02	-3.999995e-02	-4.477872e-02	-3.427992e-02	-4.505596e-02	-4.814281e-02	2.280525e-02	2.326669e-02	-7.113798e-02	-4.229540e-02	-3.448246e-02	-2.306326e-04	-3.322793e-03	4.430238e-03	6.055093e-02	8.037405e-02	-4.105577e-02	3.285127e-02	3.379729e-02	3.611705e-02	3.741671e-02	8.089008e-03	8.510154e-03	3.875528e-02	4.031465e-02	4.212717e-02	5.385106e-02	5.699419e-02	2.783238e-02	2.841504e-02	1.018878e-01	1.583065e-02	1.625065e-02	1.471546e-02	1.510668e-02	4.855184e-02	5.102885e-02	1.036188e-02	1.053124e-02	1.837204e-02	6.914476e-02	7.442947e-02	2.624771e-02	2.689533e-02	9.545092e-03	9.800186e-03	1.014570e-02	1.909703e-02	1.945181e-02	5.873286e-03	6.514526e-03	7.118721e-03	7.641819e-03	1.339813e-02	1.365922e-02	1.389398e-02	1.418685e-02	1.097086e-02	1.121729e-02	1.137719e-02	1.159893e-02	1.175550e-02	1.318823e-02	1.295100e-02	1.197031e-02	-4.175641e-02	-6.732316e-02	-6.395114e-02	-4.173282e-02	-4.163371e-02	-4.137677e-02	-4.034797e-02	-3.793329e-02	-7.845019e-02	-7.883038e-02	-5.108455e-02	-5.206338e-02	-6.070758e-02	-6.256345e-02	-6.448087e-02	-6.680288e-02	-4.826481e-02	-4.692142e-02	-4.572669e-02	-4.387661e-02	-4.313279e-02	-4.241002e-02	-4.195867e-02	-4.087716e-02	-4.073320e-02	-4.061241e-02	-4.022085e-02	-3.978676e-02	-4.007724e-02	-3.970353e-02	-4.010817e-02	-3.978202e-02	-4.028865e-02	-4.155661e-02	-4.209340e-02	-4.032008e-02	-4.098458e-02	-4.072559e-02	-4.139128e-02	-5.284723e-02	-5.398350e-02	-5.505119e-02	-5.636803e-02	-5.740927e-02	-5.835749e-02	-7.910286e-02	-7.909864e-02	3.011627e-02	3.091813e-02	3.188107e-02	1.651665e-02	1.715239e-02	1.741597e-02	-7.797724e-02	-7.478609e-02	-6.922415e-02	-6.938561e-02	-7.215113e-02	-7.465182e-02	-7.652272e-02	-3.375916e-02	-2.896573e-02	-2.705410e-02	-2.914711e-02	-4.988316e-02	-5.365990e-02	-5.177079e-02	2.023916e-02	2.063846e-02	2.147922e-02	2.191509e-02	1.214557e-02	1.236805e-02	1.253956e-02	2.685427e-03	-9.275346e-02	5.791366e-02	-1.545128e-01	1.972719e-03	2.350928e-02	8.285376e-03	1.225831e-03	-6.698837e-02	2.383710e-04	4.777104e-03	9.436924e-03	-4.855873e-02	-4.301580e-02	-2.587836e-02	-1.291469e-02	-8.383974e-03	-6.965979e-03	-8.589768e-03	1.181880e-05	9.630334e-02	-2.262422e-02	6.144713e-02	7.952913e-02	4.469313e-02	2.745216e-02	1.284256e-02	-8.241891e-02	-4.669780e-02	-5.147832e-02	-3.716765e-02	-3.708415e-02	-3.643414e-02	-3.710826e-02	-3.671059e-02	1.616130e-02	-1.944809e-02	-7.850865e-02	8.035372e-03	-1.648676e-01	-7.048185e-02	-6.285039e-03	1.706679e-01	1.824237e-01	4.288566e-02	5.331418e-03	-1.287921e-03	-4.966409e-02	4.830134e-04	-5.572215e-02	-2.166919e-02	-3.224069e-02	3.432159e-02	3.415579e-03	1.152150e-02	1.117454e-02	-7.416004e-02	-3.653315e-02	-5.354823e-02	7.417271e-02	2.201864e-02	-1.739661e-02	-2.952297e-02	-3.319340e-02	-3.835530e-02	2.065644e-02	-3.634317e-02	-3.058680e-02	-3.298870e-03	4.111122e-03	3.155114e-02	3.272308e-02	3.370459e-02	3.507472e-02	7.759272e-03	7.478618e-03	3.617030e-02	3.769966e-02	3.900252e-02	4.070030e-02	5.182258e-02	5.472586e-02	2.578723e-02	8.423851e-02	1.398079e-02	1.424755e-02	1.328454e-02	1.345015e-02	4.684431e-02	4.919046e-02	9.053490e-03	9.362711e-03	6.536383e-02	6.963331e-02	2.444991e-02	8.440091e-03	8.796699e-03	9.003542e-03	1.712301e-02	5.836621e-03	6.336301e-03	6.764719e-03	7.166031e-03	1.158547e-02	1.195341e-02	1.203618e-02	1.245461e-02	1.263345e-02	9.723096e-03	9.760898e-03	1.005360e-02	1.008425e-02	1.038294e-02	-6.377004e-02	-6.082800e-02	-5.816969e-02	-3.722399e-02	-3.655919e-02	-3.684906e-02	-3.596296e-02	-3.540585e-02	-6.146183e-02	-6.113792e-02	-3.916168e-02	-4.130506e-02	-5.114347e-02	-5.225063e-02	-5.430134e-02	-4.508319e-02	-4.411721e-02	-4.295702e-02	-4.227419e-02	-4.124753e-02	-4.066835e-02	-3.984674e-02	-3.914040e-02	-3.818571e-02	-3.781166e-02	-3.670559e-02	-3.647493e-02	-3.639624e-02	-3.658561e-02	-3.672722e-02	-4.103206e-02	-4.261561e-02	-4.255298e-02	-4.463734e-02	-4.488060e-02	-4.586520e-02	-4.715854e-02	-6.139133e-02	-6.209152e-02	2.861172e-02	2.972082e-02	3.055266e-02	1.457563e-02	1.528565e-02	-6.204289e-02	-5.982858e-02	-5.541960e-02	-5.662068e-02	-5.892988e-02	-6.077355e-02	-6.161134e-02	-6.160317e-02	-3.264720e-02	-2.850505e-02	-2.368842e-02	-1.910241e-02	-4.964621e-02	-4.810863e-02	1.820724e-02	1.938718e-02	1.043029e-02	1.075618e-02	1.079701e-02	1.112144e-02	1.847377e-01	-1.674898e-01	2.220406e-03	-9.333940e-03	8.247525e-02	5.720381e-02	-6.752921e-02	-1.677278e-02	-5.276754e-02	9.463077e-02	6.338304e-02	-4.044924e-03	5.017000e-03	2.853761e-03	-1.424185e-02	-7.972595e-02	-3.096642e-02	-2.000898e-02	3.433565e-03	5.436277e-02	1.388189e-02	-6.451889e-02	1.008955e-02	4.293570e-02	4.049649e-02	1.679020e-02	7.414147e-03	8.467860e-03	4.697522e-04	1.175330e-02	7.099939e-03	7.301198e-03	-4.384142e-02	-5.942319e-02	-4.430407e-02	-1.345571e-02	-3.544161e-02	5.167854e-02	-1.530318e-01	-6.185456e-02	-7.492264e-03	-1.942411e-03	6.702849e-02	2.192008e-02	-3.273707e-02	-3.312249e-02	-7.103336e-02	-1.068611e-03	-9.134854e-02	-5.277892e-03	1.704405e-01	5.386206e-03	1.404562e-03	1.688198e-03	-3.283644e-02	4.534380e-03	-5.091973e-02	-4.926428e-02	-3.281929e-02	-1.829270e-02	-2.699872e-02	2.063966e-02	-2.691025e-02	-2.329376e-02	3.996622e-03	3.100190e-02	3.333543e-02	6.873555e-03	3.587599e-02	3.783748e-02	4.918914e-02	7.121491e-02	1.239687e-02	4.481583e-02	4.690841e-02	8.175533e-03	6.015176e-02	2.303461e-02	2.450818e-02	7.769351e-03	7.950370e-03	1.473582e-02	5.762610e-03	6.068310e-03	6.432113e-03	6.692353e-03	1.049104e-02	1.099169e-02	1.126251e-02	8.738087e-03	9.034070e-03	-5.705131e-02	-5.483118e-02	-3.281073e-02	-3.145172e-02	-4.708317e-02	-3.227098e-02	-4.583633e-02	-3.533811e-02	-4.199966e-02	-4.011622e-02	-3.848201e-02	-3.705197e-02	-3.606542e-02	-3.453977e-02	-3.381983e-02	-3.331557e-02	-3.298164e-02	-3.277507e-02	-3.268923e-02	-3.265667e-02	-3.263514e-02	-3.426270e-02	-3.592805e-02	-3.686967e-02	-3.905828e-02	-4.028305e-02	-4.714989e-02	-4.835117e-02	2.608145e-02	2.789873e-02	2.922333e-02	1.277992e-02	1.316768e-02	-4.898536e-02	-4.756878e-02	-4.411155e-02	-3.991808e-02	-4.763620e-02	-4.909141e-02	-4.998973e-02	-4.976396e-02	-4.859306e-02	-4.918838e-02	-2.693989e-02	-1.959152e-02	-4.798069e-02	-4.616456e-02	1.571458e-02	1.796361e-02	1.924580e-02	9.371700e-03	9.717044e-03	-7.242736e-02	1.522361e-01	1.505907e-01	-9.965261e-02	5.938838e-03	-6.266699e-02	-4.183437e-02	8.403134e-02	2.643023e-03	4.042526e-03	1.043980e-01	7.287703e-02	-2.348189e-02	-1.359829e-02	-5.014242e-03	-5.091273e-02	2.081841e-02	-1.535301e-02	-8.221640e-02	3.469342e-02	4.825632e-03	-3.793511e-02	-2.626044e-02	3.081490e-03	1.021118e-02	4.085533e-02	1.605568e-02	1.311125e-02	4.994679e-02	5.214939e-02	5.134501e-03	5.407660e-03	-1.136705e-01	-5.666202e-02	-5.889398e-02	-4.784278e-02	-1.246020e-02	-3.000251e-02	1.847374e-02	6.344237e-03	-1.386411e-01	-1.395463e-01	-7.346780e-03	4.782128e-02	-4.931904e-02	4.090131e-02	5.456310e-02	-1.595405e-02	3.613735e-03	1.234223e-02	-1.691257e-03	6.451306e-03	6.542107e-03	-5.458070e-02	-1.033901e-02	4.589073e-02	5.714408e-02	1.969891e-02	-5.406785e-03	1.210354e-01	6.159714e-03	1.736645e-03	2.579282e-03	-2.994976e-02	4.444030e-03	-4.655462e-02	-3.002354e-02	-9.755775e-03	-3.006830e-02	-2.083126e-02	-1.836775e-02	2.994023e-02	3.237985e-02	3.686776e-02	3.916303e-02	6.148167e-02	1.075016e-02	4.241916e-02	4.407881e-02	9.839333e-03	2.497391e-02	2.648903e-02	2.203082e-02	6.609075e-03	6.834932e-03	6.921951e-03	5.635498e-03	8.922180e-03	9.379373e-03	7.076115e-03	7.291026e-03	1.721811e-02	-5.269717e-02	-2.987538e-02	-2.971047e-02	-3.987814e-02	-4.050293e-02	-3.846096e-02	-3.335874e-02	-3.665834e-02	-3.522009e-02	-3.415856e-02	-3.265885e-02	-3.197147e-02	-3.137210e-02	-3.092379e-02	-3.059896e-02	-3.036086e-02	-3.020230e-02	-1.966606e-02	-2.501068e-02	-2.753895e-02	-2.970843e-0