# vtk DataFile Version 3.0
vtk output
ASCII
DATASET UNSTRUCTURED_GRID
POINTS 5233 float
9.997500e-01	-3.632909e-05	0.0	9.990000e-01	-1.452618e-04	0.0	9.977600e-01	-3.252008e-04	0.0	9.960200e-01	-5.774943e-04	0.0	9.937800e-01	-9.022942e-04	0.0	9.910500e-01	-1.298763e-03	0.0	9.878400e-01	-1.766726e-03	0.0	9.841300e-01	-2.311194e-03	0.0	9.799500e-01	-2.930640e-03	0.0	9.752800e-01	-3.631444e-03	0.0	9.701500e-01	-4.412625e-03	0.0	9.645400e-01	-5.280292e-03	0.0	9.584700e-01	-6.233365e-03	0.0	9.519400e-01	-7.272227e-03	0.0	9.449600e-01	-8.393908e-03	0.0	9.375400e-01	-9.593773e-03	0.0	9.296900e-01	-1.086609e-02	0.0	9.214000e-01	-1.220804e-02	0.0	9.127000e-01	-1.361074e-02	0.0	9.035800e-01	-1.507272e-02	0.0	8.940600e-01	-1.658877e-02	0.0	8.841500e-01	-1.815610e-02	0.0	8.738500e-01	-1.977361e-02	0.0	8.631800e-01	-2.143627e-02	0.0	8.521600e-01	-2.313752e-02	0.0	8.407700e-01	-2.487471e-02	0.0	8.290500e-01	-2.663345e-02	0.0	8.170100e-01	-2.840162e-02	0.0	8.046400e-01	-3.016792e-02	0.0	7.919700e-01	-3.191393e-02	0.0	7.790100e-01	-3.362378e-02	0.0	7.657800e-01	-3.528073e-02	0.0	7.522800e-01	-3.687177e-02	0.0	7.385200e-01	-3.838440e-02	0.0	7.245300e-01	-3.980643e-02	0.0	7.103200e-01	-4.113073e-02	0.0	6.958900e-01	-4.235375e-02	0.0	6.812700e-01	-4.347212e-02	0.0	6.664700e-01	-4.448693e-02	0.0	6.515000e-01	-4.540154e-02	0.0	6.363800e-01	-4.622067e-02	0.0	6.211300e-01	-4.695082e-02	0.0	6.057600e-01	-4.760016e-02	0.0	5.902800e-01	-4.817747e-02	0.0	5.747100e-01	-4.869148e-02	0.0	5.590600e-01	-4.915119e-02	0.0	5.433600e-01	-4.956464e-02	0.0	5.276100e-01	-4.993996e-02	0.0	5.118400e-01	-5.028359e-02	0.0	4.960500e-01	-5.060149e-02	0.0	4.802700e-01	-5.089775e-02	0.0	4.645100e-01	-5.117554e-02	0.0	4.487800e-01	-5.143670e-02	0.0	4.331100e-01	-5.168146e-02	0.0	4.175000e-01	-5.190932e-02	0.0	4.019700e-01	-5.211839e-02	0.0	3.865400e-01	-5.230586e-02	0.0	3.712300e-01	-5.246816e-02	0.0	3.560400e-01	-5.260130e-02	0.0	3.409900e-01	-5.270061e-02	0.0	3.261100e-01	-5.276113e-02	0.0	3.114000e-01	-5.277790e-02	0.0	2.968700e-01	-5.274582e-02	0.0	2.825500e-01	-5.265996e-02	0.0	2.684500e-01	-5.251559e-02	0.0	2.545700e-01	-5.230801e-02	0.0	2.409400e-01	-5.203324e-02	0.0	2.275700e-01	-5.168749e-02	0.0	2.144700e-01	-5.126729e-02	0.0	2.016600e-01	-5.076993e-02	0.0	1.891400e-01	-5.019238e-02	0.0	1.769300e-01	-4.953284e-02	0.0	1.650400e-01	-4.878952e-02	0.0	1.534900e-01	-4.796177e-02	0.0	1.422900e-01	-4.704883e-02	0.0	1.314400e-01	-4.604934e-02	0.0	1.209500e-01	-4.496296e-02	0.0	1.108500e-01	-4.379208e-02	0.0	1.011300e-01	-4.253503e-02	0.0	9.181000e-02	-4.119389e-02	0.0	8.290000e-02	-3.976997e-02	0.0	7.440000e-02	-3.826304e-02	0.0	6.633000e-02	-3.667657e-02	0.0	5.869000e-02	-3.501058e-02	0.0	5.149000e-02	-3.326708e-02	0.0	4.474000e-02	-3.144844e-02	0.0	3.844000e-02	-2.955433e-02	0.0	3.260000e-02	-2.758711e-02	0.0	2.723000e-02	-2.554977e-02	0.0	2.232000e-02	-2.343708e-02	0.0	1.790000e-02	-2.126113e-02	0.0	1.395000e-02	-1.901092e-02	0.0	1.049000e-02	-1.669561e-02	0.0	7.520000e-03	-1.431461e-02	0.0	5.040000e-03	-1.186637e-02	0.0	3.050000e-03	-9.347302e-03	0.0	1.560000e-03	-6.769269e-03	0.0	5.600000e-04	-4.108233e-03	0.0	6.000000e-05	-1.363608e-03	0.0	0.000000e+00	0.000000e+00	0.0	6.000000e-05	1.350236e-03	0.0	5.600000e-04	4.050826e-03	0.0	1.560000e-03	6.663226e-03	0.0	3.050000e-03	9.195473e-03	0.0	5.040000e-03	1.167583e-02	0.0	7.520000e-03	1.409653e-02	0.0	1.049000e-02	1.646478e-02	0.0	1.395000e-02	1.878581e-02	0.0	1.790000e-02	2.106403e-02	0.0	2.232000e-02	2.329392e-02	0.0	2.723000e-02	2.549065e-02	0.0	3.260000e-02	2.764558e-02	0.0	3.844000e-02	2.976800e-02	0.0	4.474000e-02	3.185849e-02	0.0	5.149000e-02	3.391797e-02	0.0	5.869000e-02	3.595015e-02	0.0	6.633000e-02	3.795531e-02	0.0	7.440000e-02	3.993367e-02	0.0	8.290000e-02	4.188739e-02	0.0	9.181000e-02	4.381361e-02	0.0	1.011300e-01	4.571359e-02	0.0	1.108500e-01	4.758588e-02	0.0	1.209500e-01	4.942683e-02	0.0	1.314400e-01	5.123782e-02	0.0	1.422900e-01	5.301272e-02	0.0	1.534900e-01	5.474871e-02	0.0	1.650400e-01	5.644398e-02	0.0	1.769300e-01	5.809472e-02	0.0	1.891400e-01	5.969553e-02	0.0	2.016600e-01	6.124223e-02	0.0	2.144700e-01	6.272926e-02	0.0	2.275700e-01	6.415328e-02	0.0	2.409400e-01	6.550849e-02	0.0	2.545700e-01	6.679020e-02	0.0	2.684500e-01	6.799357e-02	0.0	2.825500e-01	6.911218e-02	0.0	2.968700e-01	7.014214e-02	0.0	3.114000e-01	7.107860e-02	0.0	3.261100e-01	7.191555e-02	0.0	3.409900e-01	7.264840e-02	0.0	3.560400e-01	7.327286e-02	0.0	3.712300e-01	7.378330e-02	0.0	3.865400e-01	7.417483e-02	0.0	4.019700e-01	7.444303e-02	0.0	4.175000e-01	7.458295e-02	0.0	4.331100e-01	7.458992e-02	0.0	4.487800e-01	7.445955e-02	0.0	4.645100e-01	7.418745e-02	0.0	4.802700e-01	7.376991e-02	0.0	4.960500e-01	7.320341e-02	0.0	5.118400e-01	7.248482e-02	0.0	5.276100e-01	7.161270e-02	0.0	5.433600e-01	7.058503e-02	0.0	5.590600e-01	6.940265e-02	0.0	5.747100e-01	6.806549e-02	0.0	5.902800e-01	6.657731e-02	0.0	6.057600e-01	6.494175e-02	0.0	6.211300e-01	6.316504e-02	0.0	6.363800e-01	6.125402e-02	0.0	6.515000e-01	5.921698e-02	0.0	6.664700e-01	5.706516e-02	0.0	6.812700e-01	5.481151e-02	0.0	6.958900e-01	5.246892e-02	0.0	7.103200e-01	5.005129e-02	0.0	7.245300e-01	4.757686e-02	0.0	7.385200e-01	4.505941e-02	0.0	7.522800e-01	4.251466e-02	0.0	7.657800e-01	3.996213e-02	0.0	7.790100e-01	3.741749e-02	0.0	7.919700e-01	3.489399e-02	0.0	8.046400e-01	3.240819e-02	0.0	8.170100e-01	2.997405e-02	0.0	8.290500e-01	2.760884e-02	0.0	8.407700e-01	2.532127e-02	0.0	8.521600e-01	2.312328e-02	0.0	8.631800e-01	2.103157e-02	0.0	8.738500e-01	1.905016e-02	0.0	8.841500e-01	1.718895e-02	0.0	8.940600e-01	1.545535e-02	0.0	9.035800e-01	1.385019e-02	0.0	9.127000e-01	1.237271e-02	0.0	9.214000e-01	1.102010e-02	0.0	9.296900e-01	9.781662e-03	0.0	9.375400e-01	8.650401e-03	0.0	9.449600e-01	7.612208e-03	0.0	9.519400e-01	6.656126e-03	0.0	9.584700e-01	5.772587e-03	0.0	9.645400e-01	4.954359e-03	0.0	9.701500e-01	4.195689e-03	0.0	9.752800e-01	3.496291e-03	0.0	9.799500e-01	2.852720e-03	0.0	9.841300e-01	2.270023e-03	0.0	9.878400e-01	1.747228e-03	0.0	9.910500e-01	1.290667e-03	0.0	9.937800e-01	8.994899e-04	0.0	9.960200e-01	5.767420e-04	0.0	9.977600e-01	3.250644e-04	0.0	9.990000e-01	1.452495e-04	0.0	9.997500e-01	3.632890e-05	0.0	1.000000e+00	0.000000e+00	0.0	1.984229e+01	2.506660e+00	0.0	1.937166e+01	4.973800e+00	0.0	1.859553e+01	7.362490e+00	0.0	1.752613e+01	9.635070e+00	0.0	1.618034e+01	1.175571e+01	0.0	1.457937e+01	1.369094e+01	0.0	1.274848e+01	1.541027e+01	0.0	1.071654e+01	1.688656e+01	0.0	8.515590e+00	1.809654e+01	0.0	6.180340e+00	1.902113e+01	0.0	3.747630e+00	1.964575e+01	0.0	1.255810e+00	1.996053e+01	0.0	-1.255810e+00	1.996053e+01	0.0	-3.747630e+00	1.964574e+01	0.0	-6.180340e+00	1.902113e+01	0.0	-8.515590e+00	1.809654e+01	0.0	-1.071654e+01	1.688656e+01	0.0	-1.274848e+01	1.541026e+01	0.0	-1.457937e+01	1.369094e+01	0.0	-1.618034e+01	1.175570e+01	0.0	-1.752613e+01	9.635070e+00	0.0	-1.859553e+01	7.362490e+00	0.0	-1.937166e+01	4.973800e+00	0.0	-1.984229e+01	2.506660e+00	0.0	-2.000000e+01	0.000000e+00	0.0	-1.984229e+01	-2.506670e+00	0.0	-1.937166e+01	-4.973800e+00	0.0	-1.859553e+01	-7.362490e+00	0.0	-1.752613e+01	-9.635080e+00	0.0	-1.618034e+01	-1.175571e+01	0.0	-1.457937e+01	-1.369094e+01	0.0	-1.274848e+01	-1.541027e+01	0.0	-1.071653e+01	-1.688656e+01	0.0	-8.515580e+00	-1.809654e+01	0.0	-6.180340e+00	-1.902113e+01	0.0	-3.747620e+00	-1.964575e+01	0.0	-1.255810e+00	-1.996053e+01	0.0	1.255810e+00	-1.996053e+01	0.0	3.747630e+00	-1.964574e+01	0.0	6.180340e+00	-1.902113e+01	0.0	8.515590e+00	-1.809654e+01	0.0	1.071654e+01	-1.688656e+01	0.0	1.274848e+01	-1.541026e+01	0.0	1.457937e+01	-1.369094e+01	0.0	1.618034e+01	-1.175570e+01	0.0	1.752614e+01	-9.635070e+00	0.0	1.859553e+01	-7.362490e+00	0.0	1.937166e+01	-4.973790e+00	0.0	1.984229e+01	-2.506660e+00	0.0	2.000000e+01	0.000000e+00	0.0	6.093892e-02	-4.285144e-02	0.0	6.600410e-01	-5.844939e-02	0.0	4.255297e-01	8.863687e-02	0.0	6.904536e-01	6.677179e-02	0.0	3.791252e-01	-6.656260e-02	0.0	9.994589e-01	-7.258723e-04	0.0	9.985402e-01	-1.320872e-03	0.0	7.738251e-01	-4.634860e-02	0.0	6.897588e-01	-5.606349e-02	0.0	-1.367138e-03	6.233161e-03	0.0	7.467650e-01	-4.997311e-02	0.0	5.838090e-01	8.122916e-02	0.0	9.927651e-01	-3.598793e-03	0.0	9.898616e-01	-4.480982e-03	0.0	5.994275e-01	7.958836e-02	0.0	7.187102e-01	-5.322760e-02	0.0	-1.548094e-03	7.305687e-04	0.0	9.864673e-01	-5.441292e-03	0.0	9.825916e-01	-6.470515e-03	0.0	-1.358171e-03	-6.336027e-03	0.0	6.449375e-01	-5.947833e-02	0.0	8.244939e-01	-3.842106e-02	0.0	7.997632e-01	-4.246746e-02	0.0	3.482204e-01	8.660152e-02	0.0	8.478910e-01	-3.434813e-02	0.0	2.468390e-01	7.862192e-02	0.0	8.698983e-01	-3.032503e-02	0.0	1.001408e-02	2.079824e-02	0.0	8.904116e-01	-2.642047e-02	0.0	7.722818e-02	-4.682321e-02	0.0	9.093595e-01	-2.267674e-02	0.0	-1.865007e-03	-3.138557e-03	0.0	9.422484e-01	-1.580904e-02	0.0	9.266631e-01	-1.912583e-02	0.0	1.806769e-02	-2.637803e-02	0.0	4.256782e-01	-6.623083e-02	0.0	8.590773e-01	-3.232303e-02	0.0	9.560748e-01	-1.276843e-02	0.0	9.782290e-01	-7.589010e-03	0.0	9.680882e-01	-1.002215e-02	0.0	1.584746e-01	-5.900398e-02	0.0	9.000881e-01	-2.452666e-02	0.0	7.604299e-01	-4.820093e-02	0.0	9.971132e-01	-2.058079e-03	0.0	5.988429e-01	-6.197001e-02	0.0	4.413590e-01	-6.604490e-02	0.0	5.361230e-01	-6.418097e-02	0.0	4.728882e-01	-6.557080e-02	0.0	5.045102e-01	-6.495629e-02	0.0	4.886866e-01	-6.528085e-02	0.0	1.251652e-01	-5.514410e-02	0.0	2.799454e-02	-3.148915e-02	0.0	3.945492e-01	-6.649285e-02	0.0	4.640172e-02	-3.855324e-02	0.0	4.100682e-01	-6.638196e-02	0.0	3.187978e-01	-6.636792e-02	0.0	3.486567e-01	-6.657206e-02	0.0	3.367005e-02	-3.391128e-02	0.0	2.896281e-01	-6.592628e-02	0.0	9.346743e-01	-1.743395e-02	0.0	1.470184e-01	-5.780948e-02	0.0	1.948400e-01	-6.200962e-02	0.0	8.600599e-02	-4.867547e-02	0.0	1.048018e-01	-5.210645e-02	0.0	5.676108e-01	-6.321237e-02	0.0	1.702734e-01	-6.010386e-02	0.0	6.143295e-01	-6.122907e-02	0.0	8.803501e-01	-2.835590e-02	0.0	2.280418e-02	-2.897635e-02	0.0	9.951875e-01	-2.803889e-03	0.0	6.796488e-03	-1.820110e-02	0.0	1.798544e-02	2.626178e-02	0.0	9.182203e-01	-2.087471e-02	0.0	9.49388
[...]
POINT_DATA 5233

SCALARS Conservative_1 float 1
LOOKUP_TABLE default
1.559446e-02	7.159281e-03	5.657995e-03	4.558095e-03	3.858527e-03	3.333186e-03	2.923380e-03	2.597949e-03	2.338890e-03	2.132050e-03	1.967968e-03	1.839260e-03	1.740078e-03	1.665579e-03	1.611742e-03	1.573750e-03	1.550015e-03	1.532517e-03	1.521388e-03	1.516890e-03	1.524144e-03	1.537988e-03	1.560943e-03	1.595090e-03	1.637294e-03	1.690762e-03	1.749413e-03	1.815843e-03	1.883386e-03	1.951103e-03	2.016409e-03	2.071636e-03	2.120115e-03	2.150637e-03	2.170214e-03	2.170359e-03	2.158607e-03	2.128876e-03	2.089292e-03	2.034920e-03	1.975250e-03	1.905885e-03	1.835590e-03	1.760609e-03	1.688335e-03	1.615412e-03	1.547519e-03	1.482127e-03	1.422586e-03	1.367655e-03	1.318599e-03	1.274494e-03	1.235286e-03	1.201965e-03	1.172015e-03	1.147630e-03	1.125443e-03	1.107359e-03	1.090142e-03	1.075649e-03	1.060716e-03	1.046908e-03	1.031174e-03	1.015454e-03	9.963874e-04	9.759881e-04	9.509755e-04	9.231387e-04	8.899106e-04	8.522883e-04	8.087886e-04	7.590284e-04	7.029852e-04	6.392255e-04	5.681940e-04	4.887609e-04	4.000014e-04	3.022257e-04	1.937957e-04	7.469379e-05	-5.675940e-05	-2.008781e-04	-3.591061e-04	-5.323760e-04	-7.226457e-04	-9.304907e-04	-1.158642e-03	-1.407401e-03	-1.678614e-03	-1.971576e-03	-2.284401e-03	-2.603543e-03	-2.929397e-03	-3.256623e-03	-3.393116e-03	-3.171281e-03	-2.897677e-03	-2.673253e-03	-2.255774e-03	-1.846052e-03	-1.490272e-03	-5.900141e-04	4.823165e-04	6.292142e-04	1.728364e-03	5.583250e-03	9.454946e-03	1.050165e-02	9.519547e-03	8.268728e-03	7.273892e-03	6.408683e-03	5.609361e-03	4.893403e-03	4.265962e-03	3.730573e-03	3.270546e-03	2.873550e-03	2.533672e-03	2.233648e-03	1.972929e-03	1.737146e-03	1.518941e-03	1.317146e-03	1.133676e-03	9.687611e-04	8.208443e-04	6.835531e-04	5.582465e-04	4.409415e-04	3.364875e-04	2.430477e-04	1.599480e-04	8.574660e-05	1.451522e-05	-5.172396e-05	-1.111012e-04	-1.436900e-04	-1.407658e-04	-8.652097e-05	3.378546e-05	2.641854e-04	5.579093e-04	8.129745e-04	9.067328e-04	8.709956e-04	7.872187e-04	6.986366e-04	6.107401e-04	5.124459e-04	4.055927e-04	2.869651e-04	1.664016e-04	3.999458e-05	-9.258577e-05	-2.258817e-04	-3.672848e-04	-5.061346e-04	-6.463172e-04	-7.871975e-04	-9.239814e-04	-1.062519e-03	-1.194486e-03	-1.327717e-03	-1.453061e-03	-1.578999e-03	-1.696651e-03	-1.814369e-03	-1.923791e-03	-2.033391e-03	-2.135312e-03	-2.238236e-03	-2.333231e-03	-2.429807e-03	-2.522913e-03	-2.614037e-03	-2.704913e-03	-2.794727e-03	-2.890180e-03	-2.988189e-03	-3.097598e-03	-3.209065e-03	-3.323119e-03	-3.439953e-03	-3.570722e-03	-3.715025e-03	-3.878665e-03	-4.062020e-03	-4.270194e-03	-4.506549e-03	-4.777613e-03	-5.090076e-03	-5.454206e-03	-5.881839e-03	-6.391401e-03	-7.006923e-03	-7.910771e-03	-8.735315e-03	-1.532627e-02	-4.179090e-04	-1.007719e-05	-9.827671e-06	-9.437200e-06	-9.025888e-06	-8.463216e-06	-7.789452e-06	-6.918891e-06	-5.844865e-06	-4.512807e-06	-3.052494e-06	-1.135702e-06	1.218075e-06	3.919427e-06	6.558417e-06	8.434813e-06	9.882076e-06	1.059186e-05	1.069187e-05	1.036633e-05	9.963659e-06	9.704484e-06	8.199727e-06	9.361231e-06	1.710612e-05	1.148574e-05	9.923464e-06	1.207648e-05	1.027513e-05	1.235022e-06	1.185952e-06	1.016922e-06	3.501771e-07	-5.981020e-08	-6.737746e-07	-1.449355e-06	-2.341360e-06	-2.940326e-06	-3.956694e-06	-4.476711e-06	-5.650719e-06	-7.081394e-06	-8.107744e-06	-8.938986e-06	-9.539549e-06	-9.966419e-06	-1.025423e-05	-1.041378e-05	-1.043244e-05	-1.032246e-05	-1.026916e-05	-5.706090e-04	1.820526e-03	1.103345e-03	-9.023613e-04	9.742172e-04	1.177641e-02	8.083801e-03	1.829715e-03	1.893364e-03	-5.458867e-04	1.896932e-03	1.163107e-04	3.810307e-03	3.236187e-03	-2.518975e-05	1.920521e-03	-1.759885e-03	2.812728e-03	2.491196e-03	-2.732420e-03	1.771386e-03	1.631861e-03	1.733944e-03	6.094830e-04	1.544059e-03	6.709654e-04	1.485042e-03	8.420450e-03	1.464626e-03	-2.613640e-04	1.482286e-03	-2.463025e-03	1.565432e-03	1.510167e-03	-2.161117e-03	1.042094e-03	1.509800e-03	1.681911e-03	2.241104e-03	1.891975e-03	5.230278e-04	1.469759e-03	1.869316e-03	5.864036e-03	1.589608e-03	1.071817e-03	1.340280e-03	1.143176e-03	1.233202e-03	1.186163e-03	3.003490e-04	-1.622294e-03	9.937341e-04	-9.400391e-04	1.016762e-03	9.095848e-04	9.401155e-04	-1.376743e-03	8.771585e-04	1.532642e-03	4.571200e-04	6.806002e-04	-1.267145e-04	1.075903e-04	1.461325e-03	5.822350e-04	1.654017e-03	1.469290e-03	-1.884146e-03	4.625949e-03	-3.000839e-03	7.902295e-03	1.495848e-03	1.614082e-03	2.045124e-03	-6.759075e-06	1.584270e-03	8.143363e-04	1.399869e-03	1.915706e-03	1.784581e-03	2.088870e-04	7.565163e-04	1.525891e-03	1.862984e-03	-7.475798e-04	-3.220374e-03	-2.444414e-03	9.560492e-04	6.344398e-04	1.643827e-02	7.877494e-04	-3.875743e-06	8.934586e-04	8.382770e-04	1.105184e-03	1.914065e-03	-1.370664e-03	-2.939766e-03	5.142088e-04	-2.059496e-03	6.406815e-03	4.071570e-03	5.128287e-03	2.002000e-03	1.123481e-03	-8.250273e-03	6.335681e-04	9.265232e-04	-4.367429e-03	-3.940548e-03	-2.775960e-03	8.415367e-04	1.060065e-03	9.922068e-04	-3.232676e-03	-3.006647e-03	2.947032e-03	-4.631313e-03	-3.764862e-03	-3.471642e-03	2.421110e-03	3.641475e-03	5.079980e-04	6.116055e-04	1.225107e-03	4.640328e-04	1.000082e-03	1.095711e-03	1.490784e-03	1.816768e-03	-3.186270e-04	9.991822e-04	8.137997e-04	-6.131236e-04	2.561656e-04	-1.447023e-03	-1.181612e-03	-1.931342e-03	-1.696940e-03	-2.362813e-03	-2.153276e-03	-2.888996e-03	-2.567145e-03	-3.610355e-03	-3.122069e-03	-4.139409e-03	-2.465732e-03	-2.670234e-03	-2.042542e-03	-2.258260e-03	-1.572884e-03	-1.814899e-03	-1.042387e-03	-1.315035e-03	-4.654693e-04	-7.576468e-04	3.882385e-04	-1.714849e-04	9.002383e-04	7.380669e-04	1.351571e-03	1.107345e-03	4.566036e-03	1.645982e-03	8.735349e-03	5.750385e-03	7.213084e-04	1.689259e-03	1.772704e-03	1.681763e-03	9.243906e-04	1.284960e-03	-3.310971e-05	7.091537e-03	5.577079e-03	2.667153e-03	3.269283e-03	5.558411e-04	2.202312e-03	-4.941729e-03	-5.311817e-03	4.723178e-04	-5.768174e-03	-6.349760e-03	4.999765e-04	7.921439e-04	-3.348742e-03	-1.768610e-02	-1.016524e-02	-1.316664e-02	1.714088e-03	-1.149527e-03	-7.129898e-03	7.423427e-04	-3.185433e-03	-2.722482e-03	-4.090885e-04	3.829391e-04	8.584630e-04	3.343093e-03	-7.576921e-04	-1.365623e-03	7.234359e-04	1.663091e-03	1.391006e-03	-2.761437e-03	4.409071e-04	1.641538e-03	1.605240e-03	3.032396e-03	7.764608e-04	1.405415e-03	1.462379e-03	-1.969368e-04	-2.735550e-03	5.916056e-04	-2.292866e-03	1.670296e-03	3.456996e-04	1.679236e-03	1.569207e-03	9.451432e-04	-3.216983e-04	8.455538e-04	1.369316e-03	1.570610e-03	5.204153e-03	6.716851e-03	-4.697457e-04	-2.184667e-03	2.456977e-03	-6.189771e-04	1.736966e-03	-2.510058e-03	-5.524174e-03	1.194057e-03	9.483196e-04	-3.595067e-03	-2.617836e-03	-6.073990e-03	-3.761739e-03	-4.725425e-03	1.217113e-03	1.090777e-03	1.281232e-03	2.641224e-03	1.607242e-03	5.531839e-04	7.030272e-03	1.990127e-03	4.373098e-03	-4.170461e-03	-6.780938e-03	-2.725128e-03	4.063676e-04	-7.028022e-03	-8.849015e-03	-7.755020e-03	2.048730e-03	-4.428710e-04	-2.977055e-03	-2.243542e-03	-1.953652e-03	-2.044149e-03	4.161262e-03	-6.076743e-04	6.338338e-03	4.231459e-03	1.319887e-03	1.196968e-03	2.642862e-03	1.373583e-03	2.910862e-04	3.540893e-03	-2.540410e-03	9.154807e-04	1.362724e-03	1.429837e-03	1.064241e-03	1.385287e-03	1.368209e-03	-4.585654e-04	1.377228e-03	1.412238e-03	1.519021e-03	-1.566421e-03	1.583686e-03	1.782407e-03	2.345190e-03	1.999231e-04	1.657670e-03	1.635950e-03	5.198049e-03	9.776688e-04	1.013852e-03	1.054936e-03	-1.800382e-03	8.658037e-04	8.901271e-04	7.919719e-04	-1.139511e-03	1.436638e-03	1.471262e-03	2.765561e-04	-8.281565e-05	1.251511e-03	1.416278e-03	1.926544e-03	2.109766e-03	1.680612e-03	1.676226e-03	2.046187e-05	1.153956e-04	1.304972e-03	1.362511e-03	-9.483517e-04	-7.706556e-04	-2.534657e-03	8.091535e-04	8.260791e-04	4.616985e-04	5.102199e-04	6.244681e-04	6.544178e-04	7.426185e-04	7.593091e-04	6.799887e-04	-1.752088e-03	-3.073367e-03	4.801354e-03	-5.082604e-03	8.359296e-04	1.053449e-03	1.141161e-03	1.213833e-03	-4.424013e-03	-3.952390e-03	-3.073768e-03	1.264587e-03	1.297109e-03	1.414163e-03	-2.954446e-03	-3.445663e-03	3.643107e-03	3.986272e-03	1.157512e-03	1.107324e-03	1.857468e-03	2.133496e-03	2.288272e-03	-1.717350e-03	-1.197506e-03	-1.059958e-03	-1.595717e-03	-2.073268e-03	-2.837794e-03	-2.403732e-03	-2.294254e-03	-1.955996e-03	-1.840800e-03	-1.465761e-03	-1.335841e-03	-9.146502e-04	-7.701879e-04	-3.151416e-04	-1.631863e-04	5.792815e-04	7.120220e-04	-8.899508e-06	1.433373e-04	1.353283e-03	1.436439e-03	1.526902e-03	1.628164e-03	7.170065e-03	5.266440e-03	5.750498e-03	1.534816e-03	1.496347e-03	1.098888e-03	1.147445e-03	-5.927512e-05	6.234481e-03	2.847764e-03	3.079752e-03	1.041321e-03	1.040501e-03	1.420599e-03	1.332548e-03	-3.313527e-03	-3.189517e-03	1.472064e-03	1.521020e-03	-1.345330e-03	-2.947841e-03	7.037038e-04	-2.558615e-03	7.309242e-04	5.973822e-04	1.404899e-03	1.023967e-03	1.285606e-03	-5.407000e-03	-5.008977e-03	-3.709192e-03	2.495018e-04	-5.836211e-03	-1.098426e-02	-1.024178e-02	4.590453e-03	-1.558384e-03	-1.928703e-03	-1.866142e-03	-2.661106e-04	1.313624e-03	2.916428e-03	6.945601e-04	8.596073e-03	-2.736203e-03	1.461724e-03	-2.882701e-03	1.469158e-03	-2.145018e-03	1.255367e-03	-2.555258e-03	6.547078e-04	1.266764e-03	1.442858e-03	3.295251e-03	-2.359406e-03	-4.379225e-03	1.082125e-03	-3.381851e-03	-2.298515e-04	-6.411832e-03	1.197365e-03	1.522383e-03	1.692136e-03	2.201407e-03	3.711883e-03	-1.101799e-02	-2.734591e-03	-9.732167e-04	5.890893e-03	-1.444283e-03	1.623180e-03	-3.800260e-04	-2.077923e-03	2.352519e-04	8.342625e-04	-1.712193e-03	4.379113e-03	-1.996636e-03	-1.517007e-03	-3.855192e-04	-4.671632e-03	-3.537115e-03	-2.537713e-03	-2.430776e-03	1.595707e-03	1.505814e-03	1.685063e-03	2.877361e-03	1.386924e-03	1.419565e-03	4.296083e-04	5.625010e-03	2.319714e-03	-4.123771e-03	-7.226790e-03	2.163334e-03	-5.658342e-04	-2.875352e-03	-2.349924e-03	-1.504677e-03	7.401432e-03	8.552823e-03	1.743203e-03	2.579215e-03	5.489818e-04	8.050272e-04	1.514770e-03	1.304970e-03	1.282354e-03	1.249480e-03	1.249859e-03	-6.412345e-04	-5.052717e-04	1.253493e-03	1.267014e-03	1.452393e-03	1.527158e-03	2.303923e-03	1.447933e-03	1.432912e-03	3.819962e-03	8.681532e-04	9.013334e-04	7.520974e-04	7.780571e-04	-1.308725e-03	1.349258e-03	1.393587e-03	1.005470e-04	1.710110e-04	1.071190e-03	1.117712e-03	1.891899e-03	2.077523e-03	1.473685e-03	1.467608e-03	-1.614209e-04	-6.541924e-05	2.245364e-05	1.167278e-03	1.214672e-03	-1.123930e-03	-9.501568e-04	-7.882591e-04	6.714585e-04	6.912429e-04	7.091497e-04	2.922180e-04	3.432286e-04	3.900076e-04	4.671834e-04	4.978951e-04	6.181812e-04	6.355734e-04	5.281956e-04	4.574403e-03	1.292633e-03	1.370580e-03	-3.903919e-03	1.425719e-03	1.463124e-03	1.483597e-03	1.581854e-03	-2.872306e-03	3.977208e-03	4.268810e-03	1.561823e-03	1.622005e-03	2.444826e-03	2.576825e-03	2.720774e-03	-9.804789e-04	-2.757995e-03	-2.643600e-03	-2.326212e-03	-2.216134e-03	-2.108053e-03	-1.875257e-03	-1.763727e-03	-1.643557e-03	-1.390330e-03	-1.257835e-03	-1.121435e-03	-8.365429e-04	-6.891529e-04	-5.381756e-04	-7.437687e-05	8.316314e-04	9.606060e-04	8.272618e-05	2.382584e-04	3.919430e-04	1.755498e-03	1.829697e-03	1.908373e-03	1.996943e-03	2.092612e-03	4.889018e-03	5.202665e-03	1.382108e-03	1.356251e-03	1.328064e-03	9.383094e-04	9.819592e-04	5.502075e-03	5.754713e-03	3.053440e-03	3.249027e-03	3.469311e-03	1.530615e-03	1.678176e-03	1.770852e-03	1.769163e-03	-3.243451e-03	-3.113113e-03	-2.992939e-03	1.263223e-03	1.307470e-03	1.350690e-03	5.531617e-04	5.776601e-04	-2.543268e-03	-3.286996e-04	-5.794985e-03	-4.235140e-03	9.378534e-04	-1.842626e-03	4.846939e-03	1.183084e-03	1.218492e-03	-1.434548e-03	-5.085510e-03	1.349086e-03	-2.674842e-03	4.494157e-03	-2.495545e-03	-3.449122e-03	-5.391169e-03	-9.906714e-04	-5.524670e-05	-4.583062e-04	-5.402606e-03	2.329496e-03	1.257115e-03	1.355708e-04	-1.803569e-03	6.362790e-04	-4.320569e-04	7.134086e-04	4.895062e-04	-4.488607e-03	8.710580e-04	-3.296647e-03	-3.158525e-03	-1.342750e-03	2.587564e-03	1.863837e-03	2.347347e-03	3.998853e-03	1.145875e-03	-7.502946e-03	-4.772039e-03	3.143829e-03	1.646667e-03	-1.991071e-03	1.298155e-03	-2.617237e-03	1.291412e-03	1.316389e-03	-2.174278e-03	2.590714e-03	-2.347360e-03	-1.829677e-03	1.248727e-03	1.966050e-03	-1.445732e-03	3.519672e-03	-2.042933e-04	-2.355322e-03	2.036390e-03	1.893988e-03	1.860742e-03	1.255336e-03	1.262409e-03	-4.004410e-03	1.962398e-03	4.531725e-04	-2.699426e-03	-2.412757e-03	-1.612634e-03	1.535884e-03	2.127823e-03	7.185125e-04	1.172345e-03	1.153780e-03	1.137098e-03	1.136810e-03	-6.678570e-04	-5.452516e-04	1.137467e-03	1.146895e-03	1.165243e-03	1.368585e-03	1.443597e-03	1.296576e-03	1.263151e-03	2.822144e-03	7.467377e-04	7.810321e-04	6.572765e-04	6.867596e-04	1.259425e-03	1.307059e-03	9.484060e-06	7.127611e-05	9.683542e-04	1.780434e-03	1.941084e-03	1.307164e-03	1.292133e-03	-2.321195e-04	-1.462970e-04	-6.185563e-05	1.023449e-03	1.053531e-03	-1.263910e-03	-1.099368e-03	-9.420652e-04	-7.993549e-04	5.494954e-04	5.708640e-04	5.902058e-04	6.130602e-04	1.856409e-04	2.373086e-04	2.787725e-04	3.202339e-04	3.535298e-04	5.308196e-04	5.091883e-04	3.873598e-04	1.443983e-03	-3.799485e-03	-3.615803e-03	1.506859e-03	1.556569e-03	1.589201e-03	1.616602e-03	1.658104e-03	4.205082e-03	4.399426e-03	1.911567e-03	1.973048e-03	2.707121e-03	2.826516e-03	2.955727e-03	3.094503e-03	-2.669051e-03	-2.560861e-03	-2.454900e-03	-2.251747e-03	-2.148284e-03	-2.040205e-03	-1.933900e-03	-1.707362e-03	-1.587686e-03	-1.480847e-03	-1.222609e-03	-1.078397e-03	-9.502948e-04	-7.998823e-04	-6.640410e-04	-5.079887e-04	-3.641127e-04	1.122950e-03	9.924818e-04	1.046084e-04	2.567211e-04	4.164050e-04	5.719949e-04	2.049549e-03	2.124681e-03	2.204782e-03	2.289028e-03	2.378057e-03	2.478917e-03	4.578733e-03	4.741790e-03	1.229681e-03	1.204646e-03	1.188825e-03	8.104497e-04	8.579328e-04	8.867943e-04	4.878286e-03	4.949015e-03	4.879529e-03	3.246562e-03	3.413894e-03	3.603017e-03	3.799764e-03	1.730233e-03	1.851737e-03	1.977857e-03	2.051858e-03	-2.783749e-03	-3.026249e-03	-2.907359e-03	1.109649e-03	1.135989e-03	1.189589e-03	1.208373e-03	4.152326e-04	4.434087e-04	4.657114e-04	-1.995119e-03	-5.206009e-03	1.418385e-03	-8.162897e-03	-2.146158e-03	1.166185e-03	-3.772229e-04	-2.276752e-03	-3.844184e-03	-2.460999e-03	-1.511550e-03	5.070300e-05	2.886141e-03	2.789547e-03	-3.513716e-04	-1.797043e-03	-2.100173e-03	-2.194720e-03	-2.097465e-03	-2.534194e-03	2.574839e-03	2.229115e-03	1.511494e-03	2.030807e-03	1.133715e-03	1.134164e-03	5.577952e-04	-4.693546e-03	-2.612918e-03	-2.937984e-03	1.040989e-03	1.270134e-03	1.248101e-05	-1.123675e-03	1.439243e-03	8.314021e-04	2.209798e-03	-4.477243e-03	-4.715927e-04	-8.488261e-03	-4.038749e-03	-2.251183e-03	5.181732e-03	5.764998e-03	1.109544e-03	-1.362357e-03	-2.510716e-03	3.596350e-03	-2.373603e-03	-3.197949e-03	-9.402711e-04	-3.099643e-03	-3.629050e-04	-1.840432e-03	4.329191e-04	4.010810e-04	-4.242618e-03	8.429532e-04	-3.066350e-03	1.870087e-03	1.143947e-03	-1.400628e-03	2.184730e-03	2.135812e-03	2.075288e-03	1.106915e-03	1.657016e-03	5.111284e-04	-2.420619e-03	-1.675211e-03	1.062193e-03	1.063013e-03	1.047217e-03	1.052057e-03	-5.758103e-04	-6.856199e-04	1.041846e-03	1.053895e-03	1.059131e-03	1.071725e-03	1.271380e-03	1.339023e-03	1.153500e-03	2.167577e-03	6.479606e-04	6.720018e-04	5.906212e-04	6.088459e-04	1.169461e-03	1.215059e-03	-6.672969e-05	4.211222e-06	1.619119e-03	1.739721e-03	1.156168e-03	-2.885816e-04	-1.983556e-04	-1.312286e-04	9.064995e-04	-1.213508e-03	-1.065888e-03	-9.290657e-04	-8.036038e-04	4.450040e-04	4.754408e-04	4.877604e-04	5.194941e-04	5.363756e-04	1.126475e-04	1.481669e-04	2.014726e-04	2.285172e-04	2.740164e-04	-3.663349e-03	-3.495861e-03	-3.341991e-03	1.525217e-03	1.578550e-03	1.628759e-03	1.659588e-03	1.693240e-03	4.114961e-03	4.207501e-03	2.094707e-03	2.124980e-03	2.982708e-03	3.103153e-03	3.242664e-03	-2.493327e-03	-2.401956e-03	-2.295141e-03	-2.208205e-03	-2.095780e-03	-2.000637e-03	-1.884900e-03	-1.729175e-03	-1.547139e-03	-1.373170e-03	-8.545473e-04	-5.761353e-04	-2.859783e-04	3.154040e-04	6.116624e-04	2.203321e-03	2.279511e-03	2.375688e-03	2.458389e-03	2.548953e-03	2.655044e-03	2.760831e-03	4.266984e-03	4.306594e-03	1.100214e-03	1.096420e-03	1.079491e-03	7.026050e-04	7.598553e-04	4.313691e-03	4.242502e-03	4.035324e-03	3.382144e-03	3.528126e-03	3.688399e-03	3.843284e-03	3.983142e-03	1.733264e-03	1.808726e-03	1.908176e-03	2.072894e-03	-2.821291e-03	-2.713253e-03	9.813809e-04	1.050330e-03	2.961335e-04	3.364268e-04	3.527973e-04	3.873813e-04	5.914873e-03	-8.541652e-03	-2.067469e-03	-2.061258e-03	1.629476e-03	1.332763e-03	-3.973771e-03	-1.324604e-03	-3.076987e-03	2.481141e-03	1.482432e-03	-2.399027e-03	-1.413084e-03	-1.950183e-03	2.159867e-03	-5.039105e-03	1.347816e-03	-8.631471e-04	-1.823319e-03	1.266380e-03	6.907196e-04	-3.797032e-03	3.462124e-04	1.042194e-03	1.008460e-03	8.857660e-04	-4.112349e-04	1.505924e-05	-2.311480e-03	5.092285e-04	-5.928074e-04	-4.999174e-04	3.111778e-03	-3.488494e-03	-2.490918e-03	-1.706173e-03	2.203211e-03	1.206121e-03	-8.040846e-03	-3.636729e-03	-2.160905e-03	-2.409792e-03	1.575805e-03	1.023252e-03	1.357752e-03	1.517677e-03	-4.172443e-03	-1.781189e-03	-5.174909e-03	-2.331514e-03	5.234545e-03	-1.286204e-03	-2.207771e-03	-2.148311e-03	9.525816e-04	-1.546932e-03	-2.958277e-03	-2.846574e-03	1.158554e-03	2.283975e-03	2.240350e-03	1.010698e-03	4.755715e-04	-2.733629e-04	-1.691305e-03	9.696586e-04	9.646248e-04	-6.951807e-04	9.702397e-04	9.751964e-04	1.153304e-03	1.689307e-03	5.629598e-04	1.070508e-03	1.108529e-03	-8.973372e-05	1.403108e-03	1.019037e-03	1.012900e-03	-2.847069e-04	-1.880852e-04	7.555955e-04	-1.154597e-03	-1.021400e-03	-9.060682e-04	-8.000059e-04	3.912562e-04	4.381052e-04	4.668844e-04	1.031557e-04	1.784562e-04	-3.343650e-03	-3.206507e-03	1.626797e-03	1.700304e-03	3.957099e-03	2.247415e-03	3.285778e-03	-1.354387e-03	-2.295890e-03	-2.098749e-03	-1.894823e-03	-1.698577e-03	-1.524741e-03	-1.146119e-03	-8.953640e-04	-6.315765e-04	-3.604942e-04	-7.984234e-05	2.071085e-04	4.916949e-04	7.453475e-04	2.379957e-03	2.560944e-03	2.727472e-03	2.835157e-03	2.955747e-03	3.917432e-03	3.865399e-03	9.987347e-04	9.939806e-04	9.739621e-04	5.982711e-04	6.338086e-04	3.783312e-03	3.619308e-03	3.324709e-03	2.872850e-03	3.425699e-03	3.557232e-03	3.688636e-03	3.806474e-03	3.886193e-03	3.986358e-03	1.784479e-03	1.914061e-03	-2.755674e-03	-2.634268e-03	8.224824e-04	9.409440e-04	9.832104e-04	2.433243e-04	2.978477e-04	-4.269304e-03	4.596853e-03	4.571944e-03	-5.564405e-03	-9.268475e-04	-3.784045e-03	-3.442293e-03	2.094007e-03	-1.943709e-03	-1.661043e-03	2.832315e-03	1.717139e-03	3.868293e-04	-1.607367e-03	-2.337205e-03	-3.043439e-03	9.085782e-04	1.916259e-03	-4.753064e-03	8.791409e-04	-1.424236e-03	3.689996e-03	1.065906e-03	-1.868994e-03	4.123383e-04	9.395030e-04	8.165201e-04	6.456255e-04	1.081527e-03	1.121928e-03	-1.315623e-03	-1.205177e-03	-6.401207e-03	-3.424710e-03	-3.569418e-03	-2.829126e-03	2.312793e-03	8.144155e-04	8.898828e-04	-6.915801e-04	-7.309405e-03	-7.387904e-03	-2.201073e-03	1.043204e-03	-2.932851e-03	-3.636387e-05	1.172239e-03	-1.233288e-03	-1.765480e-03	5.886685e-04	-2.234411e-03	-6.068888e-04	-5.221732e-04	-3.290912e-03	-1.987783e-03	1.011112e-03	1.223828e-03	9.052304e-04	-2.331478e-03	3.242608e-03	-7.866623e-04	-2.053699e-03	-1.975124e-03	1.211261e-03	-1.546056e-03	-2.732208e-03	1.014537e-03	2.167038e-03	5.910752e-04	-2.399250e-04	-7.814286e-04	8.641451e-04	8.687660e-04	8.949796e-04	9.208401e-04	1.338683e-03	4.592032e-04	9.591203e-04	9.825421e-04	3.766861e-04	8.847890e-04	8.773378e-04	9.058884e-04	-4.251621e-04	-3.177357e-04	-2.306408e-04	-1.082795e-03	2.843089e-04	3.333838e-04	-1.339457e-04	-3.884534e-05	8.595856e-04	-3.164249e-03	1.393982e-03	1.536201e-03	3.243973e-03	-2.260914e-03	-2.064626e-03	-1.336162e-03	-1.863388e-03	-1.671910e-03	-1.498485e-03	-1.160078e-03	-9.480227e-04	-7.086805e-04	-4.581113e-04	-1.997614e-04	6.754981e-05	3.371163e-04	2.327769e-03	2.372456e-03	2.518142e-03	2.706069e-03	2.893718e-03	3.083007e-03	3.530602e-03	3.411344e-03	8.971885e-04	8.676825e-04	5.067576e-04	5.434448e-04	3.274708e-03	3.063996e-03	2.732253e-03	2.287041e-03	1.727181e-03	3.377981e-03	3.493309e-03	3.597726e-03	3.67