# vtk DataFile Version 3.0
vtk output
ASCII
DATASET UNSTRUCTURED_GRID
POINTS 5233 float
9.997500e-01	-3.632909e-05	0.0	9.990000e-01	-1.452618e-04	0.0	9.977600e-01	-3.252008e-04	0.0	9.960200e-01	-5.774943e-04	0.0	9.937800e-01	-9.022942e-04	0.0	9.910500e-01	-1.298763e-03	0.0	9.878400e-01	-1.766726e-03	0.0	9.841300e-01	-2.311194e-03	0.0	9.799500e-01	-2.930640e-03	0.0	9.752800e-01	-3.631444e-03	0.0	9.701500e-01	-4.412625e-03	0.0	9.645400e-01	-5.280292e-03	0.0	9.584700e-01	-6.233365e-03	0.0	9.519400e-01	-7.272227e-03	0.0	9.449600e-01	-8.393908e-03	0.0	9.375400e-01	-9.593773e-03	0.0	9.296900e-01	-1.086609e-02	0.0	9.214000e-01	-1.220804e-02	0.0	9.127000e-01	-1.361074e-02	0.0	9.035800e-01	-1.507272e-02	0.0	8.940600e-01	-1.658877e-02	0.0	8.841500e-01	-1.815610e-02	0.0	8.738500e-01	-1.977361e-02	0.0	8.631800e-01	-2.143627e-02	0.0	8.521600e-01	-2.313752e-02	0.0	8.407700e-01	-2.487471e-02	0.0	8.290500e-01	-2.663345e-02	0.0	8.170100e-01	-2.840162e-02	0.0	8.046400e-01	-3.016792e-02	0.0	7.919700e-01	-3.191393e-02	0.0	7.790100e-01	-3.362378e-02	0.0	7.657800e-01	-3.528073e-02	0.0	7.522800e-01	-3.687177e-02	0.0	7.385200e-01	-3.838440e-02	0.0	7.245300e-01	-3.980643e-02	0.0	7.103200e-01	-4.113073e-02	0.0	6.958900e-01	-4.235375e-02	0.0	6.812700e-01	-4.347212e-02	0.0	6.664700e-01	-4.448693e-02	0.0	6.515000e-01	-4.540154e-02	0.0	6.363800e-01	-4.622067e-02	0.0	6.211300e-01	-4.695082e-02	0.0	6.057600e-01	-4.760016e-02	0.0	5.902800e-01	-4.817747e-02	0.0	5.747100e-01	-4.869148e-02	0.0	5.590600e-01	-4.915119e-02	0.0	5.433600e-01	-4.956464e-02	0.0	5.276100e-01	-4.993996e-02	0.0	5.118400e-01	-5.028359e-02	0.0	4.960500e-01	-5.060149e-02	0.0	4.802700e-01	-5.089775e-02	0.0	4.645100e-01	-5.117554e-02	0.0	4.487800e-01	-5.143670e-02	0.0	4.331100e-01	-5.168146e-02	0.0	4.175000e-01	-5.190932e-02	0.0	4.019700e-01	-5.211839e-02	0.0	3.865400e-01	-5.230586e-02	0.0	3.712300e-01	-5.246816e-02	0.0	3.560400e-01	-5.260130e-02	0.0	3.409900e-01	-5.270061e-02	0.0	3.261100e-01	-5.276113e-02	0.0	3.114000e-01	-5.277790e-02	0.0	2.968700e-01	-5.274582e-02	0.0	2.825500e-01	-5.265996e-02	0.0	2.684500e-01	-5.251559e-02	0.0	2.545700e-01	-5.230801e-02	0.0	2.409400e-01	-5.203324e-02	0.0	2.275700e-01	-5.168749e-02	0.0	2.144700e-01	-5.126729e-02	0.0	2.016600e-01	-5.076993e-02	0.0	1.891400e-01	-5.019238e-02	0.0	1.769300e-01	-4.953284e-02	0.0	1.650400e-01	-4.878952e-02	0.0	1.534900e-01	-4.796177e-02	0.0	1.422900e-01	-4.704883e-02	0.0	1.314400e-01	-4.604934e-02	0.0	1.209500e-01	-4.496296e-02	0.0	1.108500e-01	-4.379208e-02	0.0	1.011300e-01	-4.253503e-02	0.0	9.181000e-02	-4.119389e-02	0.0	8.290000e-02	-3.976997e-02	0.0	7.440000e-02	-3.826304e-02	0.0	6.633000e-02	-3.667657e-02	0.0	5.869000e-02	-3.501058e-02	0.0	5.149000e-02	-3.326708e-02	0.0	4.474000e-02	-3.144844e-02	0.0	3.844000e-02	-2.955433e-02	0.0	3.260000e-02	-2.758711e-02	0.0	2.723000e-02	-2.554977e-02	0.0	2.232000e-02	-2.343708e-02	0.0	1.790000e-02	-2.126113e-02	0.0	1.395000e-02	-1.901092e-02	0.0	1.049000e-02	-1.669561e-02	0.0	7.520000e-03	-1.431461e-02	0.0	5.040000e-03	-1.186637e-02	0.0	3.050000e-03	-9.347302e-03	0.0	1.560000e-03	-6.769269e-03	0.0	5.600000e-04	-4.108233e-03	0.0	6.000000e-05	-1.363608e-03	0.0	0.000000e+00	0.000000e+00	0.0	6.000000e-05	1.350236e-03	0.0	5.600000e-04	4.050826e-03	0.0	1.560000e-03	6.663226e-03	0.0	3.050000e-03	9.195473e-03	0.0	5.040000e-03	1.167583e-02	0.0	7.520000e-03	1.409653e-02	0.0	1.049000e-02	1.646478e-02	0.0	1.395000e-02	1.878581e-02	0.0	1.790000e-02	2.106403e-02	0.0	2.232000e-02	2.329392e-02	0.0	2.723000e-02	2.549065e-02	0.0	3.260000e-02	2.764558e-02	0.0	3.844000e-02	2.976800e-02	0.0	4.474000e-02	3.185849e-02	0.0	5.149000e-02	3.391797e-02	0.0	5.869000e-02	3.595015e-02	0.0	6.633000e-02	3.795531e-02	0.0	7.440000e-02	3.993367e-02	0.0	8.290000e-02	4.188739e-02	0.0	9.181000e-02	4.381361e-02	0.0	1.011300e-01	4.571359e-02	0.0	1.108500e-01	4.758588e-02	0.0	1.209500e-01	4.942683e-02	0.0	1.314400e-01	5.123782e-02	0.0	1.422900e-01	5.301272e-02	0.0	1.534900e-01	5.474871e-02	0.0	1.650400e-01	5.644398e-02	0.0	1.769300e-01	5.809472e-02	0.0	1.891400e-01	5.969553e-02	0.0	2.016600e-01	6.124223e-02	0.0	2.144700e-01	6.272926e-02	0.0	2.275700e-01	6.415328e-02	0.0	2.409400e-01	6.550849e-02	0.0	2.545700e-01	6.679020e-02	0.0	2.684500e-01	6.799357e-02	0.0	2.825500e-01	6.911218e-02	0.0	2.968700e-01	7.014214e-02	0.0	3.114000e-01	7.107860e-02	0.0	3.261100e-01	7.191555e-02	0.0	3.409900e-01	7.264840e-02	0.0	3.560400e-01	7.327286e-02	0.0	3.712300e-01	7.378330e-02	0.0	3.865400e-01	7.417483e-02	0.0	4.019700e-01	7.444303e-02	0.0	4.175000e-01	7.458295e-02	0.0	4.331100e-01	7.458992e-02	0.0	4.487800e-01	7.445955e-02	0.0	4.645100e-01	7.418745e-02	0.0	4.802700e-01	7.376991e-02	0.0	4.960500e-01	7.320341e-02	0.0	5.118400e-01	7.248482e-02	0.0	5.276100e-01	7.161270e-02	0.0	5.433600e-01	7.058503e-02	0.0	5.590600e-01	6.940265e-02	0.0	5.747100e-01	6.806549e-02	0.0	5.902800e-01	6.657731e-02	0.0	6.057600e-01	6.494175e-02	0.0	6.211300e-01	6.316504e-02	0.0	6.363800e-01	6.125402e-02	0.0	6.515000e-01	5.921698e-02	0.0	6.664700e-01	5.706516e-02	0.0	6.812700e-01	5.481151e-02	0.0	6.958900e-01	5.246892e-02	0.0	7.103200e-01	5.005129e-02	0.0	7.245300e-01	4.757686e-02	0.0	7.385200e-01	4.505941e-02	0.0	7.522800e-01	4.251466e-02	0.0	7.657800e-01	3.996213e-02	0.0	7.790100e-01	3.741749e-02	0.0	7.919700e-01	3.489399e-02	0.0	8.046400e-01	3.240819e-02	0.0	8.170100e-01	2.997405e-02	0.0	8.290500e-01	2.760884e-02	0.0	8.407700e-01	2.532127e-02	0.0	8.521600e-01	2.312328e-02	0.0	8.631800e-01	2.103157e-02	0.0	8.738500e-01	1.905016e-02	0.0	8.841500e-01	1.718895e-02	0.0	8.940600e-01	1.545535e-02	0.0	9.035800e-01	1.385019e-02	0.0	9.127000e-01	1.237271e-02	0.0	9.214000e-01	1.102010e-02	0.0	9.296900e-01	9.781662e-03	0.0	9.375400e-01	8.650401e-03	0.0	9.449600e-01	7.612208e-03	0.0	9.519400e-01	6.656126e-03	0.0	9.584700e-01	5.772587e-03	0.0	9.645400e-01	4.954359e-03	0.0	9.701500e-01	4.195689e-03	0.0	9.752800e-01	3.496291e-03	0.0	9.799500e-01	2.852720e-03	0.0	9.841300e-01	2.270023e-03	0.0	9.878400e-01	1.747228e-03	0.0	9.910500e-01	1.290667e-03	0.0	9.937800e-01	8.994899e-04	0.0	9.960200e-01	5.767420e-04	0.0	9.977600e-01	3.250644e-04	0.0	9.990000e-01	1.452495e-04	0.0	9.997500e-01	3.632890e-05	0.0	1.000000e+00	0.000000e+00	0.0	1.984229e+01	2.506660e+00	0.0	1.937166e+01	4.973800e+00	0.0	1.859553e+01	7.362490e+00	0.0	1.752613e+01	9.635070e+00	0.0	1.618034e+01	1.175571e+01	0.0	1.457937e+01	1.369094e+01	0.0	1.274848e+01	1.541027e+01	0.0	1.071654e+01	1.688656e+01	0.0	8.515590e+00	1.809654e+01	0.0	6.180340e+00	1.902113e+01	0.0	3.747630e+00	1.964575e+01	0.0	1.255810e+00	1.996053e+01	0.0	-1.255810e+00	1.996053e+01	0.0	-3.747630e+00	1.964574e+01	0.0	-6.180340e+00	1.902113e+01	0.0	-8.515590e+00	1.809654e+01	0.0	-1.071654e+01	1.688656e+01	0.0	-1.274848e+01	1.541026e+01	0.0	-1.457937e+01	1.369094e+01	0.0	-1.618034e+01	1.175570e+01	0.0	-1.752613e+01	9.635070e+00	0.0	-1.859553e+01	7.362490e+00	0.0	-1.937166e+01	4.973800e+00	0.0	-1.984229e+01	2.506660e+00	0.0	-2.000000e+01	0.000000e+00	0.0	-1.984229e+01	-2.506670e+00	0.0	-1.937166e+01	-4.973800e+00	0.0	-1.859553e+01	-7.362490e+00	0.0	-1.752613e+01	-9.635080e+00	0.0	-1.618034e+01	-1.175571e+01	0.0	-1.457937e+01	-1.369094e+01	0.0	-1.274848e+01	-1.541027e+01	0.0	-1.071653e+01	-1.688656e+01	0.0	-8.515580e+00	-1.809654e+01	0.0	-6.180340e+00	-1.902113e+01	0.0	-3.747620e+00	-1.964575e+01	0.0	-1.255810e+00	-1.996053e+01	0.0	1.255810e+00	-1.996053e+01	0.0	3.747630e+00	-1.964574e+01	0.0	6.180340e+00	-1.902113e+01	0.0	8.515590e+00	-1.809654e+01	0.0	1.071654e+01	-1.688656e+01	0.0	1.274848e+01	-1.541026e+01	0.0	1.457937e+01	-1.369094e+01	0.0	1.618034e+01	-1.175570e+01	0.0	1.752614e+01	-9.635070e+00	0.0	1.859553e+01	-7.362490e+00	0.0	1.937166e+01	-4.973790e+00	0.0	1.984229e+01	-2.506660e+00	0.0	2.000000e+01	0.000000e+00	0.0	6.093892e-02	-4.285144e-02	0.0	6.600410e-01	-5.844939e-02	0.0	4.255297e-01	8.863687e-02	0.0	6.904536e-01	6.677179e-02	0.0	3.791252e-01	-6.656260e-02	0.0	9.994589e-01	-7.258723e-04	0.0	9.985402e-01	-1.320872e-03	0.0	7.738251e-01	-4.634860e-02	0.0	6.897588e-01	-5.606349e-02	0.0	-1.367138e-03	6.233161e-03	0.0	7.467650e-01	-4.997311e-02	0.0	5.838090e-01	8.122916e-02	0.0	9.927651e-01	-3.598793e-03	0.0	9.898616e-01	-4.480982e-03	0.0	5.994275e-01	7.958836e-02	0.0	7.187102e-01	-5.322760e-02	0.0	-1.548094e-03	7.305687e-04	0.0	9.864673e-01	-5.441292e-03	0.0	9.825916e-01	-6.470515e-03	0.0	-1.358171e-03	-6.336027e-03	0.0	6.449375e-01	-5.947833e-02	0.0	8.244939e-01	-3.842106e-02	0.0	7.997632e-01	-4.246746e-02	0.0	3.482204e-01	8.660152e-02	0.0	8.478910e-01	-3.434813e-02	0.0	2.468390e-01	7.862192e-02	0.0	8.698983e-01	-3.032503e-02	0.0	1.001408e-02	2.079824e-02	0.0	8.904116e-01	-2.642047e-02	0.0	7.722818e-02	-4.682321e-02	0.0	9.093595e-01	-2.267674e-02	0.0	-1.865007e-03	-3.138557e-03	0.0	9.422484e-01	-1.580904e-02	0.0	9.266631e-01	-1.912583e-02	0.0	1.806769e-02	-2.637803e-02	0.0	4.256782e-01	-6.623083e-02	0.0	8.590773e-01	-3.232303e-02	0.0	9.560748e-01	-1.276843e-02	0.0	9.782290e-01	-7.589010e-03	0.0	9.680882e-01	-1.002215e-02	0.0	1.584746e-01	-5.900398e-02	0.0	9.000881e-01	-2.452666e-02	0.0	7.604299e-01	-4.820093e-02	0.0	9.971132e-01	-2.058079e-03	0.0	5.988429e-01	-6.197001e-02	0.0	4.413590e-01	-6.604490e-02	0.0	5.361230e-01	-6.418097e-02	0.0	4.728882e-01	-6.557080e-02	0.0	5.045102e-01	-6.495629e-02	0.0	4.886866e-01	-6.528085e-02	0.0	1.251652e-01	-5.514410e-02	0.0	2.799454e-02	-3.148915e-02	0.0	3.945492e-01	-6.649285e-02	0.0	4.640172e-02	-3.855324e-02	0.0	4.100682e-01	-6.638196e-02	0.0	3.187978e-01	-6.636792e-02	0.0	3.486567e-01	-6.657206e-02	0.0	3.367005e-02	-3.391128e-02	0.0	2.896281e-01	-6.592628e-02	0.0	9.346743e-01	-1.743395e-02	0.0	1.470184e-01	-5.780948e-02	0.0	1.948400e-01	-6.200962e-02	0.0	8.600599e-02	-4.867547e-02	0.0	1.048018e-01	-5.210645e-02	0.0	5.676108e-01	-6.321237e-02	0.0	1.702734e-01	-6.010386e-02	0.0	6.143295e-01	-6.122907e-02	0.0	8.803501e-01	-2.835590e-02	0.0	2.280418e-02	-2.897635e-02	0.0	9.951875e-01	-2.803889e-03	0.0	6.796488e-03	-1.820110e-02	0.0	1.798544e-02	2.626178e-02	0.0	9.182203e-01	-2.087471e-02	0.0	9.49388
[...]
POINT_DATA 5233

SCALARS Conservative_1 float 1
LOOKUP_TABLE default
4.308387e-01	2.179868e-01	1.789986e-01	1.495732e-01	1.303384e-01	1.155782e-01	1.038098e-01	9.424893e-02	8.640069e-02	7.988703e-02	7.443007e-02	6.983011e-02	6.590669e-02	6.255067e-02	5.965282e-02	5.713635e-02	5.493777e-02	5.288259e-02	5.095124e-02	4.919005e-02	4.776739e-02	4.657215e-02	4.559316e-02	4.479928e-02	4.410828e-02	4.358476e-02	4.310967e-02	4.276559e-02	4.242441e-02	4.213014e-02	4.185160e-02	4.149065e-02	4.116521e-02	4.067649e-02	4.019264e-02	3.955269e-02	3.891072e-02	3.812528e-02	3.735832e-02	3.647405e-02	3.563431e-02	3.470994e-02	3.385629e-02	3.294724e-02	3.212509e-02	3.127843e-02	3.051650e-02	2.976325e-02	2.907718e-02	2.842317e-02	2.782526e-02	2.725984e-02	2.672468e-02	2.624905e-02	2.577842e-02	2.537328e-02	2.496370e-02	2.460605e-02	2.423616e-02	2.390824e-02	2.356030e-02	2.324699e-02	2.290265e-02	2.258554e-02	2.223043e-02	2.189354e-02	2.151303e-02	2.114196e-02	2.072738e-02	2.030296e-02	1.984701e-02	1.935775e-02	1.884890e-02	1.829206e-02	1.770835e-02	1.708716e-02	1.641445e-02	1.570771e-02	1.494649e-02	1.414091e-02	1.327600e-02	1.235724e-02	1.137575e-02	1.032914e-02	9.210372e-03	8.019181e-03	6.746327e-03	5.390268e-03	3.956171e-03	2.429499e-03	8.660334e-04	-5.749978e-04	-2.459532e-03	-4.851490e-03	-1.927502e-03	6.520466e-03	8.074168e-03	2.401634e-03	-4.924306e-03	-1.175577e-02	-1.806649e-02	-3.186489e-02	-5.227252e-02	-6.903483e-02	-8.429677e-02	-1.074564e-01	-1.344968e-01	-1.529468e-01	-1.608102e-01	-1.636468e-01	-1.650956e-01	-1.655764e-01	-1.648066e-01	-1.625598e-01	-1.592720e-01	-1.554631e-01	-1.515988e-01	-1.479617e-01	-1.448303e-01	-1.422225e-01	-1.400901e-01	-1.385320e-01	-1.375897e-01	-1.372427e-01	-1.371248e-01	-1.369362e-01	-1.365835e-01	-1.360823e-01	-1.354554e-01	-1.347160e-01	-1.336933e-01	-1.325667e-01	-1.314004e-01	-1.304215e-01	-1.296727e-01	-1.286804e-01	-1.269646e-01	-1.238704e-01	-1.189867e-01	-1.108604e-01	-9.919550e-02	-8.738319e-02	-8.139115e-02	-8.122702e-02	-8.367072e-02	-8.601521e-02	-8.757897e-02	-8.853483e-02	-8.902004e-02	-8.913288e-02	-8.876327e-02	-8.811598e-02	-8.707783e-02	-8.583816e-02	-8.445072e-02	-8.282818e-02	-8.122518e-02	-7.942631e-02	-7.761216e-02	-7.577642e-02	-7.387062e-02	-7.206314e-02	-7.019001e-02	-6.847890e-02	-6.673119e-02	-6.517742e-02	-6.361656e-02	-6.227065e-02	-6.093936e-02	-5.983482e-02	-5.876013e-02	-5.792655e-02	-5.711420e-02	-5.656477e-02	-5.612483e-02	-5.588209e-02	-5.587110e-02	-5.607828e-02	-5.663276e-02	-5.745991e-02	-5.882242e-02	-6.050211e-02	-6.246403e-02	-6.463399e-02	-6.722218e-02	-7.015946e-02	-7.354140e-02	-7.732679e-02	-8.161780e-02	-8.647434e-02	-9.206287e-02	-9.855168e-02	-1.062208e-01	-1.153802e-01	-1.264991e-01	-1.402193e-01	-1.610965e-01	-1.806144e-01	-3.452522e-01	3.271379e-02	-1.206455e-04	-1.318835e-04	-1.423514e-04	-1.511946e-04	-1.619532e-04	-1.699018e-04	-1.785905e-04	-1.810103e-04	-1.739165e-04	-1.712509e-04	-1.761462e-04	-1.767345e-04	-1.780580e-04	-1.687306e-04	-1.487071e-04	-1.392442e-04	-1.197126e-04	-1.057995e-04	-9.075043e-05	-7.099105e-05	-4.340131e-05	-2.739397e-05	3.416033e-05	1.843871e-04	1.374214e-04	1.617979e-04	2.247659e-04	2.307168e-04	1.407193e-04	1.743715e-04	2.030431e-04	2.175467e-04	2.290883e-04	2.305764e-04	2.292338e-04	2.170962e-04	1.813929e-04	1.498975e-04	9.066469e-05	6.629697e-05	5.410865e-05	3.262395e-05	1.085941e-05	-1.167961e-05	-3.278789e-05	-5.142397e-05	-6.749940e-05	-8.295412e-05	-9.652458e-05	-1.092704e-04	9.963432e-03	3.268378e-02	-7.299141e-02	-6.179009e-02	2.192767e-02	3.370655e-01	2.418301e-01	3.788456e-02	3.420657e-02	-3.243630e-02	3.680566e-02	-7.079127e-02	1.285434e-01	1.125130e-01	-6.955904e-02	3.559468e-02	-1.374422e-02	1.003877e-01	9.091121e-02	3.982182e-03	3.191169e-02	4.003935e-02	3.891203e-02	-7.988391e-02	4.143341e-02	-1.079677e-01	4.326431e-02	-1.141751e-01	4.577402e-02	1.170092e-02	4.928065e-02	-1.953677e-03	5.776143e-02	5.323014e-02	1.614938e-03	2.300702e-02	4.227239e-02	6.370872e-02	8.327650e-02	7.181736e-02	1.661641e-02	4.740211e-02	3.738555e-02	1.838448e-01	2.952020e-02	2.343033e-02	2.665873e-02	2.435659e-02	2.543742e-02	2.488459e-02	1.508959e-02	4.370801e-03	2.225900e-02	7.953382e-03	2.263183e-02	2.070905e-02	2.129590e-02	5.643341e-03	2.013475e-02	5.537471e-02	1.614800e-02	1.787086e-02	1.247752e-02	1.387597e-02	2.802504e-02	1.706661e-02	3.032079e-02	4.440910e-02	3.030720e-03	1.507992e-01	-3.081713e-03	-1.349133e-01	5.124894e-02	6.051154e-02	7.701555e-02	-4.628880e-02	4.067445e-02	1.923319e-02	2.733502e-02	3.623927e-02	3.840549e-02	1.450606e-02	1.858664e-02	2.877531e-02	3.347796e-02	8.992287e-03	-3.586291e-03	2.537128e-04	2.159567e-02	1.747960e-02	4.570241e-01	1.892481e-02	1.320426e-02	2.041163e-02	1.954925e-02	2.387348e-02	3.494122e-02	-2.037620e-02	6.501529e-03	-7.386934e-02	-8.489392e-03	-1.412345e-01	-1.374425e-01	-1.420954e-01	-1.185730e-01	-7.178335e-02	-1.697791e-01	-7.456610e-02	-7.518209e-02	-8.339295e-02	-7.464186e-02	-5.478552e-02	-7.525502e-02	-7.403026e-02	-7.053337e-02	-6.079285e-02	-5.738306e-02	-1.273524e-01	-8.883260e-02	-7.104944e-02	-6.516870e-02	-1.220339e-01	-1.341323e-01	-1.036043e-01	-1.065955e-01	-1.153017e-01	-9.648187e-02	-7.475952e-02	-7.075131e-02	-1.165212e-01	-1.175803e-01	-6.700883e-02	-1.135399e-01	-1.109859e-01	-6.436746e-02	-7.188863e-02	-5.731675e-02	-5.940941e-02	-5.427704e-02	-5.559303e-02	-5.312197e-02	-5.345149e-02	-5.593306e-02	-5.346939e-02	-6.792070e-02	-5.903011e-02	-7.871315e-02	-5.320795e-02	-5.399109e-02	-5.377023e-02	-5.318733e-02	-5.637938e-02	-5.485552e-02	-6.054129e-02	-5.829431e-02	-6.567213e-02	-6.303683e-02	-7.295373e-02	-6.831832e-02	-1.123961e-01	-1.094559e-01	-1.159863e-01	-1.145020e-01	-1.402778e-01	-1.169785e-01	-1.282274e-01	-1.424143e-01	1.824361e-02	-6.952380e-02	6.743155e-02	3.943983e-02	2.098986e-02	2.603424e-02	-5.671849e-02	-1.387380e-01	-9.144817e-02	-1.244504e-01	-1.306726e-01	-1.052755e-01	-1.200573e-01	-9.530238e-02	-1.031349e-01	-1.010223e-01	-1.130089e-01	-1.258943e-01	-8.906069e-02	-7.281909e-02	-6.284668e-02	-3.996859e-01	-2.157683e-01	-2.889422e-01	3.109570e-02	6.837210e-03	-1.436276e-01	-7.506802e-02	1.696676e-03	-1.052755e-03	1.086261e-02	1.563845e-02	1.983605e-02	-1.105912e-01	-2.994783e-02	-2.052829e-02	1.741152e-02	3.048590e-02	4.812195e-02	-1.356386e-03	-5.912750e-02	2.979769e-02	3.459740e-02	1.067398e-01	1.817746e-02	3.939773e-02	3.754354e-02	1.155930e-02	3.835557e-03	1.611668e-02	1.091230e-03	6.414686e-02	1.448220e-02	3.124268e-02	2.832913e-02	2.065521e-02	1.093052e-02	1.927886e-02	4.448018e-02	3.527280e-02	-7.845368e-02	-1.130857e-01	-5.428366e-02	-4.961550e-02	-1.005276e-01	-5.345483e-02	-9.512426e-02	-5.107670e-02	-1.072236e-01	-6.014500e-02	-6.177989e-02	-6.716108e-02	-5.193176e-02	-1.193358e-01	-7.046137e-02	-9.015746e-02	-8.704188e-02	-6.640119e-02	-8.864924e-02	-1.024692e-01	2.902497e-02	1.581607e-02	-9.569192e-02	-9.671278e-02	-1.189246e-01	-7.870428e-02	-1.352896e-01	-5.294848e-02	1.483306e-02	-1.297850e-01	-1.831046e-01	-1.576909e-01	-5.971502e-02	-3.944123e-02	-2.981570e-03	-6.063814e-03	-1.046670e-02	2.349992e-03	1.512916e-01	9.495306e-03	1.972055e-01	1.401730e-01	-6.139281e-02	2.356343e-02	9.545707e-02	4.166677e-02	-5.842471e-02	1.211106e-01	-6.687974e-04	2.026640e-02	-6.110772e-02	3.839479e-02	-8.147603e-02	4.045926e-02	4.299742e-02	1.024105e-02	4.619226e-02	5.023264e-02	5.746897e-02	4.734416e-03	6.054810e-02	6.835098e-02	8.657304e-02	1.364342e-02	3.323209e-02	3.394868e-02	1.664639e-01	2.105578e-02	2.148362e-02	2.196961e-02	3.572570e-03	1.957527e-02	1.993180e-02	1.841988e-02	6.853278e-03	5.240502e-02	5.477606e-02	1.407670e-02	1.214720e-02	2.419200e-02	2.613449e-02	7.333066e-02	7.928600e-02	3.189391e-02	3.261437e-02	1.267978e-02	1.319276e-02	2.478985e-02	2.548625e-02	7.801640e-03	8.684381e-03	-6.329289e-06	1.870396e-02	1.897005e-02	1.519250e-02	1.551250e-02	1.637997e-02	1.665885e-02	1.767357e-02	1.790822e-02	1.690769e-02	-1.417685e-02	-1.240610e-03	-1.204319e-01	-9.770374e-02	-6.127834e-02	-6.203794e-02	-6.227395e-02	-6.225088e-02	-8.389584e-02	-7.428825e-02	-5.764630e-02	-6.202213e-02	-6.165656e-02	-6.024612e-02	-5.582339e-02	-6.425289e-02	-1.137340e-01	-1.165572e-01	-8.545696e-02	-8.368840e-02	-9.592619e-02	-9.770160e-02	-9.896268e-02	-4.946111e-02	-5.087306e-02	-5.148147e-02	-4.975062e-02	-4.944255e-02	-5.425217e-02	-5.045668e-02	-4.995294e-02	-4.930251e-02	-4.938591e-02	-5.000731e-02	-5.045288e-02	-5.204542e-02	-5.277620e-02	-5.504467e-02	-5.591898e-02	-5.997716e-02	-6.069568e-02	-5.674411e-02	-5.756479e-02	-9.021496e-02	-9.162547e-02	-9.298147e-02	-9.413046e-02	-1.066200e-01	-1.206680e-01	-1.195473e-01	3.600047e-02	3.671394e-02	2.246575e-02	2.301975e-02	-4.729280e-02	-1.171343e-01	-1.047496e-01	-1.074826e-01	-7.314548e-02	-7.814462e-02	-5.854029e-02	-5.755566e-02	-6.177695e-02	-5.955658e-02	2.687862e-02	2.755948e-02	5.831236e-03	3.528303e-03	1.717844e-02	2.204929e-05	1.686215e-02	1.509410e-02	3.181594e-02	2.033157e-02	4.651394e-02	-1.035855e-01	-9.513636e-02	-6.865940e-02	-4.104080e-02	-1.127998e-01	-2.343471e-01	-2.129255e-01	1.517049e-01	5.751736e-03	3.021165e-03	-1.249755e-02	1.053256e-02	4.869777e-02	1.042814e-01	-4.980042e-02	2.564635e-01	-1.505375e-03	2.746368e-02	9.294350e-04	2.816419e-02	1.942264e-03	3.852476e-02	-7.636910e-05	1.580662e-02	3.734584e-02	2.671560e-02	1.152974e-01	8.959826e-04	-8.205959e-02	-5.106281e-02	-6.238850e-02	-4.698938e-02	-1.253889e-01	-5.124438e-02	-6.231006e-02	-4.308046e-02	-7.629738e-02	-9.408433e-02	-2.334440e-01	2.663461e-03	-2.658003e-02	-8.738941e-02	-1.924259e-02	6.349816e-02	1.005677e-02	-8.879654e-03	1.275038e-02	1.817691e-02	4.065791e-03	-6.605593e-02	-4.594587e-02	-4.501412e-02	-4.656137e-02	-8.808175e-02	-6.533440e-02	-4.945050e-02	-4.844210e-02	-4.652552e-02	-5.797204e-02	-6.861719e-02	-8.377460e-02	2.528697e-02	2.601587e-02	1.375714e-02	-7.849540e-02	-7.732633e-02	-7.688135e-02	-1.438002e-01	-5.206042e-02	-3.366452e-02	-1.861424e-03	-4.726967e-03	5.050195e-03	2.295010e-01	2.572432e-01	6.785235e-02	9.430893e-02	-4.922479e-02	1.782329e-02	-5.187635e-02	3.527986e-02	3.623911e-02	3.980284e-02	4.121628e-02	8.928818e-03	9.518537e-03	4.274406e-02	4.455151e-02	5.646720e-02	5.972855e-02	8.598571e-02	3.028895e-02	3.112929e-02	1.302985e-01	1.858928e-02	1.895102e-02	1.713620e-02	1.748776e-02	5.952995e-03	5.106021e-02	5.358594e-02	1.211517e-02	1.243774e-02	2.088286e-02	2.141574e-02	7.291572e-02	7.893249e-02	2.893695e-02	2.966114e-02	1.097728e-02	1.139359e-02	1.178594e-02	2.202200e-02	2.261491e-02	6.797953e-03	7.576416e-03	8.297971e-03	1.602628e-02	1.631335e-02	1.655276e-02	1.301294e-02	1.327556e-02	1.354084e-02	1.401317e-02	1.420723e-02	1.534193e-02	1.554535e-02	1.445571e-02	-9.887046e-02	-5.158416e-02	-5.181816e-02	-7.249300e-02	-5.186292e-02	-5.172182e-02	-5.175591e-02	-5.166722e-02	-5.364031e-02	-9.627111e-02	-9.789195e-02	-6.525486e-02	-6.712191e-02	-7.861539e-02	-8.014047e-02	-8.178934e-02	-4.534030e-02	-5.203772e-02	-5.057761e-02	-4.765422e-02	-4.691285e-02	-4.637173e-02	-4.544853e-02	-4.534266e-02	-4.517178e-02	-4.504498e-02	-4.505337e-02	-4.519678e-02	-4.560484e-02	-4.585911e-02	-4.621327e-02	-4.740893e-02	-5.036452e-02	-5.069702e-02	-4.788937e-02	-4.832433e-02	-4.886409e-02	-6.986545e-02	-7.115114e-02	-7.256395e-02	-7.396894e-02	-7.524762e-02	-9.903613e-02	-9.831080e-02	3.266305e-02	3.349965e-02	3.432326e-02	1.936003e-02	1.987814e-02	-9.654075e-02	-9.318433e-02	-8.601633e-02	-8.862774e-02	-9.142076e-02	-5.229506e-02	-5.029059e-02	-4.734413e-02	-4.396391e-02	-5.984764e-02	-5.753745e-02	-5.553200e-02	2.327340e-02	2.391312e-02	2.461059e-02	1.465771e-02	1.490167e-02	-4.328319e-04	9.481082e-03	-1.098209e-01	-7.805595e-02	1.847471e-02	-1.301389e-02	1.593009e-01	4.480635e-02	4.706268e-02	5.318612e-03	-9.526525e-02	-4.390035e-02	8.904103e-04	-6.401122e-02	2.345025e-05	-6.288696e-02	-1.013676e-01	-2.447682e-02	-4.206665e-02	-3.018918e-02	-9.201549e-02	1.016939e-01	3.000336e-02	1.113704e-02	3.665274e-03	1.484175e-02	9.147369e-03	1.578396e-02	1.309867e-02	-8.312781e-02	-4.328393e-02	-6.007850e-02	-5.761264e-02	-4.134787e-02	-6.046578e-02	-4.679205e-02	8.870174e-02	-7.783862e-02	3.564259e-02	-1.496285e-01	-8.887587e-02	1.133572e-01	6.573373e-02	2.778991e-03	2.467959e-02	-8.688913e-04	2.517747e-02	2.618397e-02	1.856860e-03	9.628286e-02	1.027889e-03	-4.283928e-02	-4.426440e-02	-3.182675e-02	-1.869821e-02	-5.500010e-02	-4.142795e-02	-4.613236e-02	-3.090147e-02	-3.622689e-02	-4.179435e-02	2.327461e-02	2.374234e-02	-7.350633e-02	-4.519252e-02	-3.663995e-02	-1.594096e-04	-3.480459e-03	4.540355e-03	6.166481e-02	8.179475e-02	-4.277716e-02	3.349527e-02	3.445736e-02	3.681933e-02	3.814269e-02	8.317882e-03	8.752339e-03	3.950442e-02	4.108923e-02	4.293315e-02	5.485345e-02	5.804921e-02	2.838033e-02	2.897415e-02	1.036257e-01	1.620710e-02	1.663491e-02	1.507644e-02	1.547424e-02	4.946318e-02	5.198283e-02	1.065644e-02	1.082894e-02	1.878295e-02	7.039523e-02	7.576118e-02	2.677065e-02	2.742795e-02	9.818584e-03	1.008045e-02	1.043454e-02	1.951759e-02	1.987646e-02	6.030599e-03	6.693052e-03	7.316692e-03	7.856516e-03	1.374167e-02	1.400698e-02	1.424440e-02	1.454091e-02	1.127803e-02	1.152981e-02	1.169182e-02	1.191794e-02	1.207628e-02	1.352959e-02	1.328866e-02	1.229498e-02	-4.425766e-02	-6.952729e-02	-6.601384e-02	-4.439276e-02	-4.431014e-02	-4.429395e-02	-4.439939e-02	-4.446091e-02	-7.861436e-02	-7.888738e-02	-4.994738e-02	-5.216527e-02	-6.180716e-02	-6.358091e-02	-6.522657e-02	-6.719855e-02	-4.972689e-02	-4.833866e-02	-4.710782e-02	-4.520719e-02	-4.444667e-02	-4.370927e-02	-4.325085e-02	-4.215894e-02	-4.201709e-02	-4.189930e-02	-4.152198e-02	-4.109325e-02	-4.140317e-02	-4.103864e-02	-4.147053e-02	-4.115674e-02	-4.169900e-02	-4.355427e-02	-4.402578e-02	-4.182008e-02	-4.254576e-02	-4.232200e-02	-4.306729e-02	-5.321401e-02	-5.426884e-02	-5.523008e-02	-5.664138e-02	-5.796191e-02	-5.922253e-02	-7.891198e-02	-7.877230e-02	3.070832e-02	3.152402e-02	3.250497e-02	1.690292e-02	1.754803e-02	1.781483e-02	-7.796392e-02	-7.558354e-02	-7.097904e-02	-6.946669e-02	-7.204342e-02	-7.450643e-02	-7.647295e-02	-4.399581e-02	-4.214947e-02	-3.877282e-02	-3.392419e-02	-5.139949e-02	-5.531343e-02	-5.335288e-02	2.067434e-02	2.107852e-02	2.193076e-02	2.237225e-02	1.247220e-02	1.269853e-02	1.287171e-02	2.756405e-03	-9.614583e-02	5.896424e-02	-1.608574e-01	2.023262e-03	2.398366e-02	8.544491e-03	1.247826e-03	-6.927219e-02	2.684343e-04	4.918196e-03	9.722897e-03	-4.877425e-02	-4.540813e-02	-2.727766e-02	-1.337036e-02	-8.748343e-03	-7.275678e-03	-8.915966e-03	2.213323e-05	9.798359e-02	-2.298798e-02	6.255317e-02	8.092582e-02	4.552987e-02	2.799426e-02	1.317168e-02	-8.536624e-02	-4.818009e-02	-5.313527e-02	-3.885674e-02	-3.890691e-02	-3.778643e-02	-3.835689e-02	-3.868260e-02	1.653522e-02	-2.720963e-02	-8.128891e-02	8.286690e-03	-1.715416e-01	-7.291438e-02	-6.526485e-03	1.736490e-01	1.854152e-01	4.369153e-02	5.491845e-03	-1.333134e-03	-5.178534e-02	4.906816e-04	-5.754401e-02	-2.266802e-02	-3.389180e-02	3.466934e-02	3.509599e-03	1.183422e-02	1.148266e-02	-7.675205e-02	-3.809665e-02	-5.528425e-02	7.548159e-02	2.247027e-02	-1.809522e-02	-2.230545e-02	-2.483424e-02	-3.114799e-02	2.108965e-02	-3.866782e-02	-3.250672e-02	-3.402087e-03	4.229601e-03	3.216982e-02	3.336304e-02	3.436156e-02	3.575661e-02	8.002257e-03	7.712513e-03	3.687035e-02	3.842567e-02	3.975114e-02	4.147345e-02	5.277585e-02	5.572600e-02	2.629890e-02	8.572438e-02	1.432394e-02	1.459572e-02	1.361957e-02	1.378700e-02	4.771625e-02	5.010080e-02	9.331360e-03	9.645896e-03	6.653099e-02	7.086898e-02	2.494118e-02	8.703635e-03	9.066747e-03	9.281193e-03	1.750921e-02	6.015085e-03	6.532262e-03	6.975251e-03	7.389607e-03	1.189853e-02	1.227137e-02	1.235444e-02	1.277758e-02	1.296026e-02	1.001313e-02	1.005181e-02	1.034837e-02	1.037948e-02	1.068201e-02	-6.591819e-02	-6.285464e-02	-6.008857e-02	-3.945604e-02	-3.895316e-02	-3.938879e-02	-3.892442e-02	-3.950020e-02	-6.194420e-02	-6.142020e-02	-3.462877e-02	-3.978438e-02	-5.153606e-02	-5.235977e-02	-5.413604e-02	-4.651859e-02	-4.551534e-02	-4.432513e-02	-4.361783e-02	-4.256790e-02	-4.197237e-02	-4.113237e-02	-4.041049e-02	-3.944068e-02	-3.906251e-02	-3.796292e-02	-3.775196e-02	-3.770417e-02	-3.800124e-02	-3.822373e-02	-4.068236e-02	-4.294730e-02	-4.270175e-02	-4.457524e-02	-4.477229e-02	-4.583021e-02	-4.728758e-02	-6.127117e-02	-6.169762e-02	2.917535e-02	3.030333e-02	3.115284e-02	1.492885e-02	1.564750e-02	-6.187149e-02	-6.042486e-02	-5.691553e-02	-5.629198e-02	-5.860938e-02	-6.063083e-02	-6.176220e-02	-6.200952e-02	-3.892198e-02	-3.870153e-02	-3.640080e-02	-3.233712e-02	-5.123769e-02	-4.963997e-02	1.860743e-02	1.980306e-02	1.072979e-02	1.106000e-02	1.110081e-02	1.142935e-02	1.877243e-01	-1.742273e-01	2.289200e-03	-9.642375e-03	8.411208e-02	5.822985e-02	-6.988345e-02	-1.750704e-02	-5.454166e-02	9.631458e-02	6.451984e-02	-4.120746e-03	5.185147e-03	2.944788e-03	-2.507630e-02	-8.279247e-02	-3.285223e-02	-2.102387e-02	3.543957e-03	5.534025e-02	1.421728e-02	-6.675537e-02	1.037723e-02	4.373116e-02	4.125271e-02	1.716264e-02	7.665888e-03	8.738248e-03	4.460200e-04	1.206129e-02	7.342300e-03	7.549268e-03	-4.311948e-02	-6.145798e-02	-4.576168e-02	-1.395166e-02	-3.737148e-02	5.261210e-02	-1.593637e-01	-6.398640e-02	-7.802177e-03	-2.025796e-03	6.823406e-02	2.236437e-02	-3.435203e-02	-3.503732e-02	-7.352181e-02	-1.433856e-03	-9.468131e-02	-5.440865e-03	1.731968e-01	5.568720e-03	1.457304e-03	1.748266e-03	-3.425484e-02	4.685095e-03	-5.262170e-02	-5.090005e-02	-3.431650e-02	-1.778740e-02	-2.035373e-02	2.106338e-02	-2.857900e-02	-2.463585e-02	4.127074e-03	3.160292e-02	3.397739e-02	7.109183e-03	3.656285e-02	3.855521e-02	5.008260e-02	7.250672e-02	1.271320e-02	4.563955e-02	4.776559e-02	8.441254e-03	6.122955e-02	2.349544e-02	2.499326e-02	8.027285e-03	8.213997e-03	1.508195e-02	5.959164e-03	6.276879e-03	6.650729e-03	6.921674e-03	1.078312e-02	1.128985e-02	1.156491e-02	9.011549e-03	9.310357e-03	-5.899314e-02	-5.668615e-02	-3.515479e-02	-3.523877e-02	-4.749048e-02	-2.831440e-02	-4.501787e-02	-3.651683e-02	-4.338085e-02	-4.143417e-02	-3.974796e-02	-3.827545e-02	-3.726259e-02	-3.570250e-02	-3.497401e-02	-3.447221e-02	-3.415140e-02	-3.396973e-02	-3.392201e-02	-3.394008e-02	-3.397896e-02	-3.354206e-02	-3.572940e-02	-3.625290e-02	-3.833547e-02	-3.941761e-02	-4.705829e-02	-4.795716e-02	2.659402e-02	2.844370e-02	2.979347e-02	1.310201e-02	1.349366e-02	-4.878403e-02	-4.804450e-02	-4.537140e-02	-4.167930e-02	-4.694120e-02	-4.866892e-02	-4.994414e-02	-5.013169e-02	-4.922371e-02	-4.985892e-02	-3.448182e-02	-3.150804e-02	-4.956674e-02	-4.768925e-02	1.607316e-02	1.835125e-02	1.965025e-02	9.651676e-03	1.000068e-02	-7.496687e-02	1.547779e-01	1.531034e-01	-1.033567e-01	6.159486e-03	-6.482187e-02	-4.347992e-02	8.555691e-02	2.749090e-03	4.189101e-03	1.062215e-01	7.421651e-02	-2.492340e-02	-1.414225e-02	-5.118717e-03	-5.265853e-02	2.123937e-02	-2.645471e-02	-8.515816e-02	3.534638e-02	5.003660e-03	-3.844985e-02	-2.781255e-02	3.190086e-03	1.049430e-02	4.160433e-02	1.641237e-02	1.343151e-02	5.085397e-02	5.310057e-02	5.325006e-03	5.608863e-03	-1.180463e-01	-5.860969e-02	-6.091511e-02	-4.947310e-02	-1.269221e-02	-3.125866e-02	1.886128e-02	6.578626e-03	-1.440917e-01	-1.450905e-01	-7.582016e-03	4.868840e-02	-5.100513e-02	4.162515e-02	5.556486e-02	-1.672243e-02	3.743885e-03	1.265272e-02	-1.820677e-03	6.690112e-03	6.783590e-03	-5.645615e-02	-1.066483e-02	4.672236e-02	5.820592e-02	2.010341e-02	-5.515659e-03	1.233047e-01	6.389914e-03	1.734382e-03	2.687048e-03	-3.135817e-02	4.606627e-03	-4.813371e-02	-3.134630e-02	-1.908600e-02	-3.127188e-02	-2.207386e-02	-1.937361e-02	3.051059e-02	3.299285e-02	3.755427e-02	3.988598e-02	6.263553e-02	1.103963e-02	4.319250e-02	4.487929e-02	1.011784e-02	2.545984e-02	2.700172e-02	2.246985e-02	6.851237e-03	7.081079e-03	7.168842e-03	5.846549e-03	9.188956e-03	9.651246e-03	7.324121e-03	7.540724e-03	1.758940e-02	-5.450725e-02	-3.142774e-02	-3.151094e-02	-3.830514e-02	-4.186140e-02	-3.974142e-02	-3.445988e-02	-3.787104e-02	-3.638098e-02	-3.528348e-02	-3.374304e-02	-3.304407e-02	-3.244172e-02	-3.200083e-02	-3.169301e-02	-3.148170e-02	-3.136058e-02	-1.430620e-02	-2.099307e-02	-2.606320e-02	-2.872467e-