# vtk DataFile Version 3.0
vtk output
ASCII
DATASET UNSTRUCTURED_GRID
POINTS 5233 float
9.997500e-01	-3.632909e-05	0.0	9.990000e-01	-1.452618e-04	0.0	9.977600e-01	-3.252008e-04	0.0	9.960200e-01	-5.774943e-04	0.0	9.937800e-01	-9.022942e-04	0.0	9.910500e-01	-1.298763e-03	0.0	9.878400e-01	-1.766726e-03	0.0	9.841300e-01	-2.311194e-03	0.0	9.799500e-01	-2.930640e-03	0.0	9.752800e-01	-3.631444e-03	0.0	9.701500e-01	-4.412625e-03	0.0	9.645400e-01	-5.280292e-03	0.0	9.584700e-01	-6.233365e-03	0.0	9.519400e-01	-7.272227e-03	0.0	9.449600e-01	-8.393908e-03	0.0	9.375400e-01	-9.593773e-03	0.0	9.296900e-01	-1.086609e-02	0.0	9.214000e-01	-1.220804e-02	0.0	9.127000e-01	-1.361074e-02	0.0	9.035800e-01	-1.507272e-02	0.0	8.940600e-01	-1.658877e-02	0.0	8.841500e-01	-1.815610e-02	0.0	8.738500e-01	-1.977361e-02	0.0	8.631800e-01	-2.143627e-02	0.0	8.521600e-01	-2.313752e-02	0.0	8.407700e-01	-2.487471e-02	0.0	8.290500e-01	-2.663345e-02	0.0	8.170100e-01	-2.840162e-02	0.0	8.046400e-01	-3.016792e-02	0.0	7.919700e-01	-3.191393e-02	0.0	7.790100e-01	-3.362378e-02	0.0	7.657800e-01	-3.528073e-02	0.0	7.522800e-01	-3.687177e-02	0.0	7.385200e-01	-3.838440e-02	0.0	7.245300e-01	-3.980643e-02	0.0	7.103200e-01	-4.113073e-02	0.0	6.958900e-01	-4.235375e-02	0.0	6.812700e-01	-4.347212e-02	0.0	6.664700e-01	-4.448693e-02	0.0	6.515000e-01	-4.540154e-02	0.0	6.363800e-01	-4.622067e-02	0.0	6.211300e-01	-4.695082e-02	0.0	6.057600e-01	-4.760016e-02	0.0	5.902800e-01	-4.817747e-02	0.0	5.747100e-01	-4.869148e-02	0.0	5.590600e-01	-4.915119e-02	0.0	5.433600e-01	-4.956464e-02	0.0	5.276100e-01	-4.993996e-02	0.0	5.118400e-01	-5.028359e-02	0.0	4.960500e-01	-5.060149e-02	0.0	4.802700e-01	-5.089775e-02	0.0	4.645100e-01	-5.117554e-02	0.0	4.487800e-01	-5.143670e-02	0.0	4.331100e-01	-5.168146e-02	0.0	4.175000e-01	-5.190932e-02	0.0	4.019700e-01	-5.211839e-02	0.0	3.865400e-01	-5.230586e-02	0.0	3.712300e-01	-5.246816e-02	0.0	3.560400e-01	-5.260130e-02	0.0	3.409900e-01	-5.270061e-02	0.0	3.261100e-01	-5.276113e-02	0.0	3.114000e-01	-5.277790e-02	0.0	2.968700e-01	-5.274582e-02	0.0	2.825500e-01	-5.265996e-02	0.0	2.684500e-01	-5.251559e-02	0.0	2.545700e-01	-5.230801e-02	0.0	2.409400e-01	-5.203324e-02	0.0	2.275700e-01	-5.168749e-02	0.0	2.144700e-01	-5.126729e-02	0.0	2.016600e-01	-5.076993e-02	0.0	1.891400e-01	-5.019238e-02	0.0	1.769300e-01	-4.953284e-02	0.0	1.650400e-01	-4.878952e-02	0.0	1.534900e-01	-4.796177e-02	0.0	1.422900e-01	-4.704883e-02	0.0	1.314400e-01	-4.604934e-02	0.0	1.209500e-01	-4.496296e-02	0.0	1.108500e-01	-4.379208e-02	0.0	1.011300e-01	-4.253503e-02	0.0	9.181000e-02	-4.119389e-02	0.0	8.290000e-02	-3.976997e-02	0.0	7.440000e-02	-3.826304e-02	0.0	6.633000e-02	-3.667657e-02	0.0	5.869000e-02	-3.501058e-02	0.0	5.149000e-02	-3.326708e-02	0.0	4.474000e-02	-3.144844e-02	0.0	3.844000e-02	-2.955433e-02	0.0	3.260000e-02	-2.758711e-02	0.0	2.723000e-02	-2.554977e-02	0.0	2.232000e-02	-2.343708e-02	0.0	1.790000e-02	-2.126113e-02	0.0	1.395000e-02	-1.901092e-02	0.0	1.049000e-02	-1.669561e-02	0.0	7.520000e-03	-1.431461e-02	0.0	5.040000e-03	-1.186637e-02	0.0	3.050000e-03	-9.347302e-03	0.0	1.560000e-03	-6.769269e-03	0.0	5.600000e-04	-4.108233e-03	0.0	6.000000e-05	-1.363608e-03	0.0	0.000000e+00	0.000000e+00	0.0	6.000000e-05	1.350236e-03	0.0	5.600000e-04	4.050826e-03	0.0	1.560000e-03	6.663226e-03	0.0	3.050000e-03	9.195473e-03	0.0	5.040000e-03	1.167583e-02	0.0	7.520000e-03	1.409653e-02	0.0	1.049000e-02	1.646478e-02	0.0	1.395000e-02	1.878581e-02	0.0	1.790000e-02	2.106403e-02	0.0	2.232000e-02	2.329392e-02	0.0	2.723000e-02	2.549065e-02	0.0	3.260000e-02	2.764558e-02	0.0	3.844000e-02	2.976800e-02	0.0	4.474000e-02	3.185849e-02	0.0	5.149000e-02	3.391797e-02	0.0	5.869000e-02	3.595015e-02	0.0	6.633000e-02	3.795531e-02	0.0	7.440000e-02	3.993367e-02	0.0	8.290000e-02	4.188739e-02	0.0	9.181000e-02	4.381361e-02	0.0	1.011300e-01	4.571359e-02	0.0	1.108500e-01	4.758588e-02	0.0	1.209500e-01	4.942683e-02	0.0	1.314400e-01	5.123782e-02	0.0	1.422900e-01	5.301272e-02	0.0	1.534900e-01	5.474871e-02	0.0	1.650400e-01	5.644398e-02	0.0	1.769300e-01	5.809472e-02	0.0	1.891400e-01	5.969553e-02	0.0	2.016600e-01	6.124223e-02	0.0	2.144700e-01	6.272926e-02	0.0	2.275700e-01	6.415328e-02	0.0	2.409400e-01	6.550849e-02	0.0	2.545700e-01	6.679020e-02	0.0	2.684500e-01	6.799357e-02	0.0	2.825500e-01	6.911218e-02	0.0	2.968700e-01	7.014214e-02	0.0	3.114000e-01	7.107860e-02	0.0	3.261100e-01	7.191555e-02	0.0	3.409900e-01	7.264840e-02	0.0	3.560400e-01	7.327286e-02	0.0	3.712300e-01	7.378330e-02	0.0	3.865400e-01	7.417483e-02	0.0	4.019700e-01	7.444303e-02	0.0	4.175000e-01	7.458295e-02	0.0	4.331100e-01	7.458992e-02	0.0	4.487800e-01	7.445955e-02	0.0	4.645100e-01	7.418745e-02	0.0	4.802700e-01	7.376991e-02	0.0	4.960500e-01	7.320341e-02	0.0	5.118400e-01	7.248482e-02	0.0	5.276100e-01	7.161270e-02	0.0	5.433600e-01	7.058503e-02	0.0	5.590600e-01	6.940265e-02	0.0	5.747100e-01	6.806549e-02	0.0	5.902800e-01	6.657731e-02	0.0	6.057600e-01	6.494175e-02	0.0	6.211300e-01	6.316504e-02	0.0	6.363800e-01	6.125402e-02	0.0	6.515000e-01	5.921698e-02	0.0	6.664700e-01	5.706516e-02	0.0	6.812700e-01	5.481151e-02	0.0	6.958900e-01	5.246892e-02	0.0	7.103200e-01	5.005129e-02	0.0	7.245300e-01	4.757686e-02	0.0	7.385200e-01	4.505941e-02	0.0	7.522800e-01	4.251466e-02	0.0	7.657800e-01	3.996213e-02	0.0	7.790100e-01	3.741749e-02	0.0	7.919700e-01	3.489399e-02	0.0	8.046400e-01	3.240819e-02	0.0	8.170100e-01	2.997405e-02	0.0	8.290500e-01	2.760884e-02	0.0	8.407700e-01	2.532127e-02	0.0	8.521600e-01	2.312328e-02	0.0	8.631800e-01	2.103157e-02	0.0	8.738500e-01	1.905016e-02	0.0	8.841500e-01	1.718895e-02	0.0	8.940600e-01	1.545535e-02	0.0	9.035800e-01	1.385019e-02	0.0	9.127000e-01	1.237271e-02	0.0	9.214000e-01	1.102010e-02	0.0	9.296900e-01	9.781662e-03	0.0	9.375400e-01	8.650401e-03	0.0	9.449600e-01	7.612208e-03	0.0	9.519400e-01	6.656126e-03	0.0	9.584700e-01	5.772587e-03	0.0	9.645400e-01	4.954359e-03	0.0	9.701500e-01	4.195689e-03	0.0	9.752800e-01	3.496291e-03	0.0	9.799500e-01	2.852720e-03	0.0	9.841300e-01	2.270023e-03	0.0	9.878400e-01	1.747228e-03	0.0	9.910500e-01	1.290667e-03	0.0	9.937800e-01	8.994899e-04	0.0	9.960200e-01	5.767420e-04	0.0	9.977600e-01	3.250644e-04	0.0	9.990000e-01	1.452495e-04	0.0	9.997500e-01	3.632890e-05	0.0	1.000000e+00	0.000000e+00	0.0	1.984229e+01	2.506660e+00	0.0	1.937166e+01	4.973800e+00	0.0	1.859553e+01	7.362490e+00	0.0	1.752613e+01	9.635070e+00	0.0	1.618034e+01	1.175571e+01	0.0	1.457937e+01	1.369094e+01	0.0	1.274848e+01	1.541027e+01	0.0	1.071654e+01	1.688656e+01	0.0	8.515590e+00	1.809654e+01	0.0	6.180340e+00	1.902113e+01	0.0	3.747630e+00	1.964575e+01	0.0	1.255810e+00	1.996053e+01	0.0	-1.255810e+00	1.996053e+01	0.0	-3.747630e+00	1.964574e+01	0.0	-6.180340e+00	1.902113e+01	0.0	-8.515590e+00	1.809654e+01	0.0	-1.071654e+01	1.688656e+01	0.0	-1.274848e+01	1.541026e+01	0.0	-1.457937e+01	1.369094e+01	0.0	-1.618034e+01	1.175570e+01	0.0	-1.752613e+01	9.635070e+00	0.0	-1.859553e+01	7.362490e+00	0.0	-1.937166e+01	4.973800e+00	0.0	-1.984229e+01	2.506660e+00	0.0	-2.000000e+01	0.000000e+00	0.0	-1.984229e+01	-2.506670e+00	0.0	-1.937166e+01	-4.973800e+00	0.0	-1.859553e+01	-7.362490e+00	0.0	-1.752613e+01	-9.635080e+00	0.0	-1.618034e+01	-1.175571e+01	0.0	-1.457937e+01	-1.369094e+01	0.0	-1.274848e+01	-1.541027e+01	0.0	-1.071653e+01	-1.688656e+01	0.0	-8.515580e+00	-1.809654e+01	0.0	-6.180340e+00	-1.902113e+01	0.0	-3.747620e+00	-1.964575e+01	0.0	-1.255810e+00	-1.996053e+01	0.0	1.255810e+00	-1.996053e+01	0.0	3.747630e+00	-1.964574e+01	0.0	6.180340e+00	-1.902113e+01	0.0	8.515590e+00	-1.809654e+01	0.0	1.071654e+01	-1.688656e+01	0.0	1.274848e+01	-1.541026e+01	0.0	1.457937e+01	-1.369094e+01	0.0	1.618034e+01	-1.175570e+01	0.0	1.752614e+01	-9.635070e+00	0.0	1.859553e+01	-7.362490e+00	0.0	1.937166e+01	-4.973790e+00	0.0	1.984229e+01	-2.506660e+00	0.0	2.000000e+01	0.000000e+00	0.0	6.093892e-02	-4.285144e-02	0.0	6.600410e-01	-5.844939e-02	0.0	4.255297e-01	8.863687e-02	0.0	6.904536e-01	6.677179e-02	0.0	3.791252e-01	-6.656260e-02	0.0	9.994589e-01	-7.258723e-04	0.0	9.985402e-01	-1.320872e-03	0.0	7.738251e-01	-4.634860e-02	0.0	6.897588e-01	-5.606349e-02	0.0	-1.367138e-03	6.233161e-03	0.0	7.467650e-01	-4.997311e-02	0.0	5.838090e-01	8.122916e-02	0.0	9.927651e-01	-3.598793e-03	0.0	9.898616e-01	-4.480982e-03	0.0	5.994275e-01	7.958836e-02	0.0	7.187102e-01	-5.322760e-02	0.0	-1.548094e-03	7.305687e-04	0.0	9.864673e-01	-5.441292e-03	0.0	9.825916e-01	-6.470515e-03	0.0	-1.358171e-03	-6.336027e-03	0.0	6.449375e-01	-5.947833e-02	0.0	8.244939e-01	-3.842106e-02	0.0	7.997632e-01	-4.246746e-02	0.0	3.482204e-01	8.660152e-02	0.0	8.478910e-01	-3.434813e-02	0.0	2.468390e-01	7.862192e-02	0.0	8.698983e-01	-3.032503e-02	0.0	1.001408e-02	2.079824e-02	0.0	8.904116e-01	-2.642047e-02	0.0	7.722818e-02	-4.682321e-02	0.0	9.093595e-01	-2.267674e-02	0.0	-1.865007e-03	-3.138557e-03	0.0	9.422484e-01	-1.580904e-02	0.0	9.266631e-01	-1.912583e-02	0.0	1.806769e-02	-2.637803e-02	0.0	4.256782e-01	-6.623083e-02	0.0	8.590773e-01	-3.232303e-02	0.0	9.560748e-01	-1.276843e-02	0.0	9.782290e-01	-7.589010e-03	0.0	9.680882e-01	-1.002215e-02	0.0	1.584746e-01	-5.900398e-02	0.0	9.000881e-01	-2.452666e-02	0.0	7.604299e-01	-4.820093e-02	0.0	9.971132e-01	-2.058079e-03	0.0	5.988429e-01	-6.197001e-02	0.0	4.413590e-01	-6.604490e-02	0.0	5.361230e-01	-6.418097e-02	0.0	4.728882e-01	-6.557080e-02	0.0	5.045102e-01	-6.495629e-02	0.0	4.886866e-01	-6.528085e-02	0.0	1.251652e-01	-5.514410e-02	0.0	2.799454e-02	-3.148915e-02	0.0	3.945492e-01	-6.649285e-02	0.0	4.640172e-02	-3.855324e-02	0.0	4.100682e-01	-6.638196e-02	0.0	3.187978e-01	-6.636792e-02	0.0	3.486567e-01	-6.657206e-02	0.0	3.367005e-02	-3.391128e-02	0.0	2.896281e-01	-6.592628e-02	0.0	9.346743e-01	-1.743395e-02	0.0	1.470184e-01	-5.780948e-02	0.0	1.948400e-01	-6.200962e-02	0.0	8.600599e-02	-4.867547e-02	0.0	1.048018e-01	-5.210645e-02	0.0	5.676108e-01	-6.321237e-02	0.0	1.702734e-01	-6.010386e-02	0.0	6.143295e-01	-6.122907e-02	0.0	8.803501e-01	-2.835590e-02	0.0	2.280418e-02	-2.897635e-02	0.0	9.951875e-01	-2.803889e-03	0.0	6.796488e-03	-1.820110e-02	0.0	1.798544e-02	2.626178e-02	0.0	9.182203e-01	-2.087471e-02	0.0	9.49388
[...]
POINT_DATA 5233

SCALARS Conservative_1 float 1
LOOKUP_TABLE default
1.532989e-02	7.027233e-03	5.557410e-03	4.476422e-03	3.789112e-03	3.272650e-03	2.869713e-03	2.549704e-03	2.295036e-03	2.091760e-03	1.930634e-03	1.804377e-03	1.707271e-03	1.634516e-03	1.582178e-03	1.545469e-03	1.522853e-03	1.506376e-03	1.496205e-03	1.492569e-03	1.500538e-03	1.514943e-03	1.538373e-03	1.572879e-03	1.615407e-03	1.669090e-03	1.727940e-03	1.794461e-03	1.862100e-03	1.929876e-03	1.995236e-03	2.050540e-03	2.099080e-03	2.129742e-03	2.149471e-03	2.149857e-03	2.138354e-03	2.108932e-03	2.069664e-03	2.015670e-03	1.956352e-03	1.887391e-03	1.817464e-03	1.742885e-03	1.670963e-03	1.598396e-03	1.530814e-03	1.465730e-03	1.406458e-03	1.351781e-03	1.302940e-03	1.259033e-03	1.219999e-03	1.186818e-03	1.157005e-03	1.132716e-03	1.110630e-03	1.092619e-03	1.075484e-03	1.061041e-03	1.046169e-03	1.032403e-03	1.016724e-03	1.001047e-03	9.820380e-04	9.616807e-04	9.367319e-04	9.089485e-04	8.757975e-04	8.382550e-04	7.948501e-04	7.451971e-04	6.892718e-04	6.256510e-04	5.547681e-04	4.755007e-04	3.869276e-04	2.893526e-04	1.811447e-04	6.228838e-05	-6.889775e-05	-2.127229e-04	-3.706354e-04	-5.435516e-04	-7.334427e-04	-9.408641e-04	-1.168561e-03	-1.416807e-03	-1.687462e-03	-1.979790e-03	-2.291921e-03	-2.610328e-03	-2.935337e-03	-3.261096e-03	-3.397438e-03	-3.178719e-03	-2.906294e-03	-2.678414e-03	-2.255572e-03	-1.841029e-03	-1.480501e-03	-5.705933e-04	5.097519e-04	6.704769e-04	1.807901e-03	5.691038e-03	9.549027e-03	1.056780e-02	9.573001e-03	8.323680e-03	7.331988e-03	6.468152e-03	5.671392e-03	4.958044e-03	4.333099e-03	3.799688e-03	3.340706e-03	2.944893e-03	2.605391e-03	2.305290e-03	2.044806e-03	1.809108e-03	1.591768e-03	1.391237e-03	1.209018e-03	1.045497e-03	8.987122e-04	7.625770e-04	6.388567e-04	5.235213e-04	4.215821e-04	3.307806e-04	2.496642e-04	1.765749e-04	1.052283e-04	3.913440e-05	-1.851249e-05	-4.650189e-05	-3.676025e-05	2.644231e-05	1.608235e-04	4.067024e-04	6.915687e-04	9.144987e-04	9.748398e-04	9.248759e-04	8.416954e-04	7.550306e-04	6.675676e-04	5.683493e-04	4.604840e-04	3.411213e-04	2.198029e-04	9.245865e-05	-4.116471e-05	-1.756583e-04	-3.181103e-04	-4.581342e-04	-5.994983e-04	-7.416073e-04	-8.796612e-04	-1.019389e-03	-1.152574e-03	-1.286934e-03	-1.413452e-03	-1.540445e-03	-1.659155e-03	-1.777815e-03	-1.888175e-03	-1.998587e-03	-2.101295e-03	-2.204877e-03	-2.300516e-03	-2.397591e-03	-2.491122e-03	-2.582573e-03	-2.673621e-03	-2.763501e-03	-2.858818e-03	-2.956598e-03	-3.065492e-03	-3.176318e-03	-3.289596e-03	-3.405611e-03	-3.535408e-03	-3.678664e-03	-3.841138e-03	-4.023297e-03	-4.230222e-03	-4.465320e-03	-4.735090e-03	-5.046259e-03	-5.409079e-03	-5.835467e-03	-6.343910e-03	-6.959042e-03	-7.862093e-03	-8.697045e-03	-1.525922e-02	-4.923006e-04	-9.890153e-06	-9.631340e-06	-9.232914e-06	-8.814957e-06	-8.244113e-06	-7.565717e-06	-6.691695e-06	-5.620507e-06	-4.303868e-06	-2.853746e-06	-9.430423e-07	1.397811e-06	4.083571e-06	6.697177e-06	8.541218e-06	9.970913e-06	1.065667e-05	1.074441e-05	1.040895e-05	9.986365e-06	9.694148e-06	8.185660e-06	9.281513e-06	1.685576e-05	1.135877e-05	9.768665e-06	1.181910e-05	1.001764e-05	1.105778e-06	1.016522e-06	8.210324e-07	1.435824e-07	-2.756703e-07	-8.881670e-07	-1.657731e-06	-2.529821e-06	-3.089426e-06	-4.067042e-06	-4.525282e-06	-5.667086e-06	-7.072895e-06	-8.072655e-06	-8.877330e-06	-9.454398e-06	-9.859525e-06	-1.012961e-05	-1.027344e-05	-1.027832e-05	-1.015651e-05	-1.009155e-05	-5.814383e-04	1.802833e-03	1.161140e-03	-8.636786e-04	9.606549e-04	1.158364e-02	7.949440e-03	1.810131e-03	1.875055e-03	-5.273635e-04	1.877673e-03	1.625744e-04	3.742609e-03	3.177667e-03	1.991934e-05	1.901679e-03	-1.753873e-03	2.761054e-03	2.444800e-03	-2.738775e-03	1.754021e-03	1.611574e-03	1.714040e-03	7.198063e-04	1.523236e-03	7.511633e-04	1.463423e-03	8.487427e-03	1.441864e-03	-2.727592e-04	1.457872e-03	-2.465293e-03	1.536772e-03	1.483810e-03	-2.168705e-03	1.028268e-03	1.488623e-03	1.650176e-03	2.198904e-03	1.855957e-03	5.102782e-04	1.446239e-03	1.849872e-03	5.764004e-03	1.573296e-03	1.057865e-03	1.325168e-03	1.128927e-03	1.218571e-03	1.171729e-03	2.879691e-04	-1.631063e-03	9.801016e-04	-9.501697e-04	1.003035e-03	8.962138e-04	9.266680e-04	-1.386017e-03	8.638597e-04	1.505201e-03	4.444752e-04	6.676015e-04	-1.383511e-04	9.554104e-05	1.445655e-03	5.693878e-04	1.637349e-03	1.447152e-03	-1.892358e-03	4.545308e-03	-3.006088e-03	7.944894e-03	1.470474e-03	1.584005e-03	2.006320e-03	1.547244e-05	1.563749e-03	8.011428e-04	1.384481e-03	1.896630e-03	1.764835e-03	1.966628e-04	7.434036e-04	1.509901e-03	1.844961e-03	-7.580768e-04	-3.224631e-03	-2.451325e-03	9.425548e-04	6.215128e-04	1.618465e-02	7.745903e-04	-1.573074e-05	8.801277e-04	8.250469e-04	1.091096e-03	1.895465e-03	-1.359312e-03	-2.947353e-03	5.639987e-04	-2.056989e-03	6.454942e-03	4.130256e-03	5.181412e-03	2.065868e-03	1.186628e-03	-8.193061e-03	6.845157e-04	9.814542e-04	-4.326959e-03	-3.902666e-03	-2.745275e-03	8.951797e-04	1.116722e-03	1.090789e-03	-3.199772e-03	-2.975020e-03	3.009775e-03	-4.589440e-03	-3.728187e-03	-3.437082e-03	2.484344e-03	3.702031e-03	5.893956e-04	6.924165e-04	1.294465e-03	5.526055e-04	1.055825e-03	1.169028e-03	1.557948e-03	1.881557e-03	-2.756805e-04	1.071345e-03	8.903187e-04	-5.723593e-04	3.035799e-04	-1.412003e-03	-1.144854e-03	-1.899077e-03	-1.663423e-03	-2.332158e-03	-2.121958e-03	-2.857898e-03	-2.536760e-03	-3.574778e-03	-3.089821e-03	-4.100273e-03	-2.435261e-03	-2.639773e-03	-2.010812e-03	-2.227333e-03	-1.538663e-03	-1.782058e-03	-1.004705e-03	-1.279195e-03	-4.236271e-04	-7.179626e-04	4.368629e-04	-1.274474e-04	9.744393e-04	8.167567e-04	1.419863e-03	1.177944e-03	4.622188e-03	1.711937e-03	8.782048e-03	5.800703e-03	7.082472e-04	1.764025e-03	1.739014e-03	1.661686e-03	9.109873e-04	1.270095e-03	6.608387e-06	7.137145e-03	5.664473e-03	2.730282e-03	3.331184e-03	6.367493e-04	2.265682e-03	-4.898323e-03	-5.266732e-03	5.558385e-04	-5.721118e-03	-6.300289e-03	5.976881e-04	9.065460e-04	-3.315043e-03	-1.756696e-02	-1.009973e-02	-1.309045e-02	1.697082e-03	-1.159252e-03	-7.077242e-03	7.945854e-04	-3.190933e-03	-2.728730e-03	-4.202159e-04	3.704181e-04	8.452033e-04	3.396536e-03	-7.417450e-04	-1.354763e-03	7.112668e-04	1.646380e-03	1.367033e-03	-2.767235e-03	4.827747e-04	1.625086e-03	1.587091e-03	2.977288e-03	7.642069e-04	1.385472e-03	1.443178e-03	-2.080268e-04	-2.741793e-03	5.795387e-04	-2.299927e-03	1.638148e-03	3.338765e-04	1.662235e-03	1.553353e-03	9.323656e-04	-3.326019e-04	8.331320e-04	1.347094e-03	1.552232e-03	5.268858e-03	6.752471e-03	-4.338219e-04	-2.155702e-03	2.512317e-03	-5.839562e-04	1.796950e-03	-2.481043e-03	-5.477959e-03	1.287194e-03	9.957487e-04	-3.560267e-03	-2.588575e-03	-6.024692e-03	-3.725804e-03	-4.683609e-03	1.285714e-03	1.178485e-03	1.348548e-03	2.696294e-03	1.591100e-03	5.411549e-04	7.077653e-03	2.047818e-03	4.420898e-03	-4.131892e-03	-6.727729e-03	-2.695547e-03	3.944838e-04	-6.992418e-03	-8.783699e-03	-7.695772e-03	2.112699e-03	-4.215645e-04	-2.981863e-03	-2.243104e-03	-1.949998e-03	-2.051816e-03	4.071665e-03	-6.181205e-04	6.233082e-03	4.157871e-03	1.375443e-03	1.183138e-03	2.593925e-03	1.352648e-03	3.318772e-04	3.477899e-03	-2.543961e-03	9.028210e-04	1.411685e-03	1.410309e-03	1.136228e-03	1.364889e-03	1.346673e-03	-4.692547e-04	1.354190e-03	1.387230e-03	1.490343e-03	-1.575110e-03	1.553416e-03	1.748045e-03	2.301085e-03	1.882826e-04	1.639972e-03	1.618007e-03	5.110076e-03	9.647669e-04	1.000807e-03	1.041716e-03	-1.808582e-03	8.533192e-04	8.775517e-04	7.796977e-04	-1.149026e-03	1.410544e-03	1.443968e-03	2.648164e-04	-9.407273e-05	1.237425e-03	1.401377e-03	1.889540e-03	2.069578e-03	1.663375e-03	1.658723e-03	9.060938e-06	1.038615e-04	1.290644e-03	1.347885e-03	-9.582118e-04	-7.808273e-04	-2.541112e-03	7.968348e-04	8.137211e-04	4.497518e-04	4.982263e-04	6.123774e-04	6.422983e-04	7.304178e-04	7.470900e-04	6.678572e-04	-1.746083e-03	-3.078126e-03	4.846419e-03	-5.038803e-03	8.818013e-04	1.102518e-03	1.192008e-03	1.266676e-03	-4.383936e-03	-3.915190e-03	-3.042457e-03	1.319697e-03	1.354153e-03	1.463948e-03	-2.923829e-03	-3.411921e-03	3.695103e-03	4.036334e-03	1.227124e-03	1.177857e-03	1.916283e-03	2.190166e-03	2.344164e-03	-1.687376e-03	-1.165455e-03	-1.027198e-03	-1.565267e-03	-2.044131e-03	-2.807749e-03	-2.374810e-03	-2.265364e-03	-1.926682e-03	-1.811150e-03	-1.434861e-03	-1.304354e-03	-8.812106e-04	-7.359391e-04	-2.783508e-04	-1.254216e-04	6.224624e-04	7.565107e-04	2.981708e-05	1.830355e-04	1.419077e-03	1.500576e-03	1.589536e-03	1.689410e-03	7.206248e-03	5.308801e-03	5.790531e-03	1.516177e-03	1.477459e-03	1.085490e-03	1.133829e-03	-1.917270e-05	6.272440e-03	2.902568e-03	3.134117e-03	1.121378e-03	1.115231e-03	1.485328e-03	1.419763e-03	-3.280682e-03	-3.157515e-03	1.456833e-03	1.505502e-03	-1.354458e-03	-2.954068e-03	6.915460e-04	-2.562758e-03	7.195608e-04	5.862581e-04	1.388109e-03	1.011527e-03	1.262326e-03	-5.362908e-03	-4.967108e-03	-3.675055e-03	2.865782e-04	-5.789854e-03	-1.090383e-02	-1.016411e-02	4.510572e-03	-1.574955e-03	-1.936426e-03	-1.861566e-03	-2.766100e-04	1.289263e-03	2.862670e-03	7.321927e-04	8.458295e-03	-2.741594e-03	1.446442e-03	-2.888143e-03	1.453616e-03	-2.152243e-03	1.235886e-03	-2.561388e-03	6.435200e-04	1.247802e-03	1.427851e-03	3.235415e-03	-2.366071e-03	-4.340954e-03	1.123942e-03	-3.349884e-03	-1.977527e-04	-6.362325e-03	1.240936e-03	1.585521e-03	1.768169e-03	2.252176e-03	3.754843e-03	-1.093841e-02	-2.740284e-03	-9.584953e-04	5.920825e-03	-1.434737e-03	1.591241e-03	-3.903939e-04	-2.075683e-03	2.242771e-04	8.225644e-04	-1.720376e-03	4.425842e-03	-1.969960e-03	-1.489693e-03	-3.541625e-04	-4.631657e-03	-3.504108e-03	-2.510362e-03	-2.403742e-03	1.674423e-03	1.574242e-03	1.742188e-03	2.924407e-03	1.372470e-03	1.404819e-03	4.185413e-04	5.660933e-03	2.369235e-03	-4.087041e-03	-7.172169e-03	2.212961e-03	-5.436706e-04	-2.880219e-03	-2.350865e-03	-1.513277e-03	7.280263e-03	8.413652e-03	1.708971e-03	2.530860e-03	5.853588e-04	7.934327e-04	1.562912e-03	1.286868e-03	1.263865e-03	1.229422e-03	1.229150e-03	-6.512589e-04	-5.154809e-04	1.232060e-03	1.244700e-03	1.424096e-03	1.497176e-03	2.260054e-03	1.431649e-03	1.416343e-03	3.751838e-03	8.563177e-04	8.894004e-04	7.406943e-04	7.665494e-04	-1.317685e-03	1.323717e-03	1.366766e-03	8.967731e-05	1.600867e-04	1.058541e-03	1.104854e-03	1.855001e-03	2.037437e-03	1.457844e-03	1.451515e-03	-1.720359e-04	-7.613309e-05	1.164837e-05	1.154179e-03	1.201330e-03	-1.133209e-03	-9.597190e-04	-7.980756e-04	6.602503e-04	6.799801e-04	6.978527e-04	2.812165e-04	3.321967e-04	3.789495e-04	4.560974e-04	4.868101e-04	6.070287e-04	6.244156e-04	5.170929e-04	4.611067e-03	1.338416e-03	1.418634e-03	-3.868539e-03	1.476290e-03	1.516279e-03	1.537636e-03	1.620480e-03	-2.843495e-03	4.018075e-03	4.307572e-03	1.621625e-03	1.679918e-03	2.493381e-03	2.624722e-03	2.768175e-03	-9.515337e-04	-2.729747e-03	-2.615893e-03	-2.299362e-03	-2.189455e-03	-2.081412e-03	-1.848613e-03	-1.736825e-03	-1.616453e-03	-1.362653e-03	-1.229803e-03	-1.092946e-03	-8.070452e-04	-6.591047e-04	-5.074790e-04	-4.153087e-05	8.705969e-04	1.000850e-03	1.163891e-04	2.727344e-04	4.273826e-04	1.812189e-03	1.885705e-03	1.963424e-03	2.050728e-03	2.144872e-03	4.923688e-03	5.235669e-03	1.365000e-03	1.338832e-03	1.310334e-03	9.262330e-04	9.696890e-04	5.533493e-03	5.784504e-03	3.100147e-03	3.295052e-03	3.514086e-03	1.605074e-03	1.709547e-03	1.810079e-03	1.829644e-03	-3.212375e-03	-3.082885e-03	-2.963423e-03	1.249607e-03	1.293587e-03	1.336510e-03	5.420592e-04	5.665350e-04	-2.547285e-03	-3.385994e-04	-5.750998e-03	-4.199704e-03	9.263307e-04	-1.837779e-03	4.762586e-03	1.160612e-03	1.194903e-03	-1.443043e-03	-5.045416e-03	1.389166e-03	-2.680057e-03	4.523192e-03	-2.501413e-03	-3.418396e-03	-5.349629e-03	-9.758648e-04	-2.616517e-05	-4.365402e-04	-5.373053e-03	2.271846e-03	1.241283e-03	1.253966e-04	-1.811345e-03	6.258919e-04	-4.418781e-04	7.028171e-04	4.793292e-04	-4.451744e-03	9.051149e-04	-3.266878e-03	-3.129605e-03	-1.317909e-03	2.629913e-03	1.919247e-03	2.301821e-03	4.030796e-03	1.127780e-03	-7.447471e-03	-4.733658e-03	3.084922e-03	1.613457e-03	-1.998446e-03	1.284232e-03	-2.622590e-03	1.277363e-03	1.301887e-03	-2.181182e-03	2.541103e-03	-2.353792e-03	-1.805198e-03	1.287312e-03	2.033451e-03	-1.436126e-03	3.555160e-03	-1.761558e-04	-2.330368e-03	2.094474e-03	1.961742e-03	1.922481e-03	1.241930e-03	1.248890e-03	-3.970318e-03	2.000612e-03	4.849191e-04	-2.704836e-03	-2.414924e-03	-1.620796e-03	1.504804e-03	2.086050e-03	7.511275e-04	1.155164e-03	1.136204e-03	1.118476e-03	1.117572e-03	-6.774428e-04	-5.549662e-04	1.117587e-03	1.126240e-03	1.143695e-03	1.341043e-03	1.414398e-03	1.281327e-03	1.247747e-03	2.768516e-03	7.360111e-04	7.701679e-04	6.468663e-04	6.762412e-04	1.234629e-03	1.280983e-03	-6.350974e-07	6.115201e-05	9.567751e-04	1.744753e-03	1.902551e-03	1.292493e-03	1.277262e-03	-2.420951e-04	-1.563181e-04	-7.195954e-05	1.011543e-03	1.041535e-03	-1.272686e-03	-1.108393e-03	-9.513175e-04	-8.087938e-04	5.392838e-04	5.606182e-04	5.799363e-04	6.027297e-04	1.754814e-04	2.271249e-04	2.686057e-04	3.100560e-04	3.433592e-04	5.206175e-04	4.990110e-04	3.771818e-04	1.486826e-03	-3.766606e-03	-3.584049e-03	1.552127e-03	1.604250e-03	1.638703e-03	1.664998e-03	1.700733e-03	4.234936e-03	4.427785e-03	1.962027e-03	2.021090e-03	2.748262e-03	2.866977e-03	2.995584e-03	3.133899e-03	-2.642941e-03	-2.535208e-03	-2.429667e-03	-2.227064e-03	-2.123767e-03	-2.015839e-03	-1.909490e-03	-1.683060e-03	-1.563076e-03	-1.455969e-03	-1.197245e-03	-1.052966e-03	-9.242474e-04	-7.737125e-04	-6.371451e-04	-4.809157e-04	-3.362043e-04	1.159401e-03	1.028091e-03	1.339844e-04	2.871811e-04	4.472619e-04	6.040957e-04	2.096956e-03	2.172188e-03	2.252091e-03	2.335776e-03	2.423412e-03	2.522682e-03	4.606054e-03	4.768369e-03	1.213617e-03	1.188280e-03	1.172051e-03	7.995322e-04	8.467385e-04	8.755578e-04	4.904159e-03	4.974125e-03	4.904952e-03	3.285441e-03	3.451879e-03	3.639488e-03	3.834047e-03	1.763502e-03	1.872687e-03	2.000225e-03	2.091416e-03	-2.757033e-03	-2.998148e-03	-2.879933e-03	1.097288e-03	1.123510e-03	1.176722e-03	1.195378e-03	4.050635e-04	4.332346e-04	4.555508e-04	-2.002237e-03	-5.166427e-03	1.388658e-03	-8.106091e-03	-2.152875e-03	1.152941e-03	-3.865754e-04	-2.282996e-03	-3.812786e-03	-2.466752e-03	-1.519663e-03	4.125812e-05	2.921271e-03	2.817392e-03	-3.311077e-04	-1.791658e-03	-2.098230e-03	-2.193845e-03	-2.095606e-03	-2.539550e-03	2.524434e-03	2.270627e-03	1.479891e-03	1.989528e-03	1.110886e-03	1.119417e-03	5.483571e-04	-4.657309e-03	-2.588413e-03	-2.911850e-03	1.073033e-03	1.304734e-03	3.860739e-05	-1.100483e-03	1.476772e-03	8.210025e-04	2.235750e-03	-4.442226e-03	-4.808958e-04	-8.426915e-03	-4.006234e-03	-2.251079e-03	5.089441e-03	5.665826e-03	1.087625e-03	-1.370712e-03	-2.514580e-03	3.620333e-03	-2.379396e-03	-3.170347e-03	-9.256831e-04	-3.089273e-03	-3.823172e-04	-1.847914e-03	4.235086e-04	3.917569e-04	-4.208960e-03	8.728514e-04	-3.039495e-03	1.831686e-03	1.131289e-03	-1.390739e-03	2.242875e-03	2.194678e-03	2.131696e-03	1.094772e-03	1.686751e-03	5.376732e-04	-2.423033e-03	-1.683017e-03	1.045745e-03	1.046034e-03	1.029801e-03	1.033987e-03	-5.850411e-04	-6.947735e-04	1.023263e-03	1.034561e-03	1.039164e-03	1.050908e-03	1.244867e-03	1.310989e-03	1.139398e-03	2.123810e-03	6.381973e-04	6.622069e-04	5.810242e-04	5.992840e-04	1.145539e-03	1.189911e-03	-7.615445e-05	-5.293632e-06	1.585435e-03	1.703742e-03	1.142591e-03	-2.979355e-04	-2.078281e-04	-1.407109e-04	8.957554e-04	-1.222067e-03	-1.074644e-03	-9.379791e-04	-8.126626e-04	4.356859e-04	4.660214e-04	4.784233e-04	5.100196e-04	5.269223e-04	1.031396e-04	1.387408e-04	1.919838e-04	2.191241e-04	2.645606e-04	-3.633004e-03	-3.466497e-03	-3.313531e-03	1.565862e-03	1.621037e-03	1.673760e-03	1.704888e-03	1.737755e-03	4.136993e-03	4.228501e-03	2.144349e-03	2.168974e-03	3.017575e-03	3.136751e-03	3.275259e-03	-2.469478e-03	-2.378314e-03	-2.271926e-03	-2.185067e-03	-2.072977e-03	-1.977864e-03	-1.862300e-03	-1.706511e-03	-1.524544e-03	-1.350255e-03	-8.308098e-04	-5.517693e-04	-2.608196e-04	3.426629e-04	6.402933e-04	2.244067e-03	2.319735e-03	2.415177e-03	2.498910e-03	2.588136e-03	2.692905e-03	2.797483e-03	4.287769e-03	4.327580e-03	1.085011e-03	1.080727e-03	1.063455e-03	6.927442e-04	7.497451e-04	4.334821e-03	4.263511e-03	4.056869e-03	3.413816e-03	3.558636e-03	3.717162e-03	3.869561e-03	4.006948e-03	1.773403e-03	1.838781e-03	1.927124e-03	2.086553e-03	-2.795839e-03	-2.688265e-03	9.702231e-04	1.038693e-03	2.867676e-04	3.269877e-04	3.434526e-04	3.779646e-04	5.814741e-03	-8.478952e-03	-2.074047e-03	-2.058960e-03	1.586838e-03	1.303469e-03	-3.943049e-03	-1.314442e-03	-3.051452e-03	2.431807e-03	1.449943e-03	-2.401238e-03	-1.421113e-03	-1.957152e-03	2.174614e-03	-5.006768e-03	1.371314e-03	-8.490156e-04	-1.830600e-03	1.238570e-03	6.815397e-04	-3.767392e-03	3.376386e-04	1.020278e-03	9.877848e-04	8.755009e-04	-4.200573e-04	6.228820e-06	-2.317422e-03	5.005694e-04	-6.015945e-04	-5.087441e-04	3.141348e-03	-3.460645e-03	-2.468123e-03	-1.699895e-03	2.225528e-03	1.179702e-03	-7.984839e-03	-3.608042e-03	-2.159749e-03	-2.413882e-03	1.541430e-03	1.010952e-03	1.390900e-03	1.554991e-03	-4.140407e-03	-1.781776e-03	-5.135878e-03	-2.332516e-03	5.141179e-03	-1.294393e-03	-2.213918e-03	-2.154483e-03	9.811393e-04	-1.554735e-03	-2.933354e-03	-2.822158e-03	1.189072e-03	2.321013e-03	2.289304e-03	9.989098e-04	4.975517e-04	-2.550631e-04	-1.698859e-03	9.535512e-04	9.474414e-04	-7.039114e-04	9.518241e-04	9.558388e-04	1.128172e-03	1.652791e-03	5.541586e-04	1.047635e-03	1.084587e-03	-9.860349e-05	1.372288e-03	1.006322e-03	9.995771e-04	-2.936090e-04	-1.969482e-04	7.461345e-04	-1.162939e-03	-1.029855e-03	-9.146839e-04	-8.086870e-04	3.827056e-04	4.295084e-04	4.583208e-04	9.439638e-05	1.697445e-04	-3.316634e-03	-3.180271e-03	1.668216e-03	1.742258e-03	3.972326e-03	2.289865e-03	3.312950e-03	-1.332997e-03	-2.273776e-03	-2.077038e-03	-1.873360e-03	-1.677286e-03	-1.503481e-03	-1.124552e-03	-8.734903e-04	-6.092309e-04	-3.375436e-04	-5.618478e-05	2.316590e-04	5.173539e-04	7.722632e-04	2.415116e-03	2.594277e-03	2.759699e-03	2.867650e-03	2.986625e-03	3.933090e-03	3.881963e-03	9.847731e-04	9.792405e-04	9.586438e-04	5.894161e-04	6.248599e-04	3.800516e-03	3.636814e-03	3.342899e-03	2.892795e-03	3.451094e-03	3.580922e-03	3.710355e-03	3.825778e-03	3.903232e-03	4.002699e-03	1.818455e-03	1.932946e-03	-2.731640e-03	-2.610916e-03	8.126542e-04	9.302145e-04	9.719802e-04	2.346651e-04	2.892447e-04	-4.236770e-03	4.514803e-03	4.491050e-03	-5.522800e-03	-9.350863e-04	-3.755180e-03	-3.424538e-03	2.050612e-03	-1.950203e-03	-1.668433e-03	2.777477e-03	1.679846e-03	4.049900e-04	-1.600337e-03	-2.339305e-03	-3.019364e-03	8.969158e-04	1.934354e-03	-4.717103e-03	8.613726e-04	-1.431998e-03	3.701548e-03	1.084796e-03	-1.875861e-03	4.045095e-04	9.187120e-04	8.067149e-04	6.369546e-04	1.056193e-03	1.095506e-03	-1.323529e-03	-1.213203e-03	-6.355644e-03	-3.398367e-03	-3.542107e-03	-2.806068e-03	2.342913e-03	8.410850e-04	8.791287e-04	-6.999284e-04	-7.255658e-03	-7.334492e-03	-2.200365e-03	1.018926e-03	-2.909315e-03	-5.754087e-05	1.144612e-03	-1.223022e-03	-1.772648e-03	5.802670e-04	-2.239213e-03	-6.152262e-04	-5.304938e-04	-3.265419e-03	-1.984611e-03	9.878037e-04	1.194948e-03	8.940117e-04	-2.332651e-03	3.178578e-03	-7.949390e-04	-2.060280e-03	-1.981570e-03	1.241664e-03	-1.553638e-03	-2.709502e-03	1.042891e-03	2.181330e-03	6.163954e-04	-2.238572e-04	-7.680977e-04	8.486122e-04	8.520917e-04	8.761443e-04	9.008781e-04	1.307595e-03	4.512689e-04	9.375453e-04	9.601392e-04	3.688974e-04	8.714544e-04	8.633522e-04	8.937480e-04	-4.334320e-04	-3.260184e-04	-2.388432e-04	-1.090911e-03	2.766053e-04	3.256565e-04	-1.420514e-04	-4.686333e-05	8.493135e-04	-3.139507e-03	1.427214e-03	1.573292e-03	3.267024e-03	-2.239903e-03	-2.043965e-03	-1.315644e-03	-1.842929e-03	-1.651535e-03	-1.478075e-03	-1.139386e-03	-9.270464e-04	-6.873051e-04	-4.362312e-04	-1.772471e-04	9.083815e-05	3.613374e-04	2.368112e-03	2.408688e-03	2.547731e-03	2.733117e-03	2.921016e-03	3.108515e-03	3.542512e-03	3.424656e-03	8.844988e-04	8.530693e-04	4.986599e-04	5.352201e-04	3.288942e-03	3.078668e-03	2.747540e-03	2.303656e-03	1.745333e-03	3.398147e-03	3.510903e-03	3.613202e-03	3.684191