# vtk DataFile Version 3.0
vtk output
ASCII
DATASET UNSTRUCTURED_GRID
POINTS 5233 float
9.997500e-01	-3.632909e-05	0.0	9.990000e-01	-1.452618e-04	0.0	9.977600e-01	-3.252008e-04	0.0	9.960200e-01	-5.774943e-04	0.0	9.937800e-01	-9.022942e-04	0.0	9.910500e-01	-1.298763e-03	0.0	9.878400e-01	-1.766726e-03	0.0	9.841300e-01	-2.311194e-03	0.0	9.799500e-01	-2.930640e-03	0.0	9.752800e-01	-3.631444e-03	0.0	9.701500e-01	-4.412625e-03	0.0	9.645400e-01	-5.280292e-03	0.0	9.584700e-01	-6.233365e-03	0.0	9.519400e-01	-7.272227e-03	0.0	9.449600e-01	-8.393908e-03	0.0	9.375400e-01	-9.593773e-03	0.0	9.296900e-01	-1.086609e-02	0.0	9.214000e-01	-1.220804e-02	0.0	9.127000e-01	-1.361074e-02	0.0	9.035800e-01	-1.507272e-02	0.0	8.940600e-01	-1.658877e-02	0.0	8.841500e-01	-1.815610e-02	0.0	8.738500e-01	-1.977361e-02	0.0	8.631800e-01	-2.143627e-02	0.0	8.521600e-01	-2.313752e-02	0.0	8.407700e-01	-2.487471e-02	0.0	8.290500e-01	-2.663345e-02	0.0	8.170100e-01	-2.840162e-02	0.0	8.046400e-01	-3.016792e-02	0.0	7.919700e-01	-3.191393e-02	0.0	7.790100e-01	-3.362378e-02	0.0	7.657800e-01	-3.528073e-02	0.0	7.522800e-01	-3.687177e-02	0.0	7.385200e-01	-3.838440e-02	0.0	7.245300e-01	-3.980643e-02	0.0	7.103200e-01	-4.113073e-02	0.0	6.958900e-01	-4.235375e-02	0.0	6.812700e-01	-4.347212e-02	0.0	6.664700e-01	-4.448693e-02	0.0	6.515000e-01	-4.540154e-02	0.0	6.363800e-01	-4.622067e-02	0.0	6.211300e-01	-4.695082e-02	0.0	6.057600e-01	-4.760016e-02	0.0	5.902800e-01	-4.817747e-02	0.0	5.747100e-01	-4.869148e-02	0.0	5.590600e-01	-4.915119e-02	0.0	5.433600e-01	-4.956464e-02	0.0	5.276100e-01	-4.993996e-02	0.0	5.118400e-01	-5.028359e-02	0.0	4.960500e-01	-5.060149e-02	0.0	4.802700e-01	-5.089775e-02	0.0	4.645100e-01	-5.117554e-02	0.0	4.487800e-01	-5.143670e-02	0.0	4.331100e-01	-5.168146e-02	0.0	4.175000e-01	-5.190932e-02	0.0	4.019700e-01	-5.211839e-02	0.0	3.865400e-01	-5.230586e-02	0.0	3.712300e-01	-5.246816e-02	0.0	3.560400e-01	-5.260130e-02	0.0	3.409900e-01	-5.270061e-02	0.0	3.261100e-01	-5.276113e-02	0.0	3.114000e-01	-5.277790e-02	0.0	2.968700e-01	-5.274582e-02	0.0	2.825500e-01	-5.265996e-02	0.0	2.684500e-01	-5.251559e-02	0.0	2.545700e-01	-5.230801e-02	0.0	2.409400e-01	-5.203324e-02	0.0	2.275700e-01	-5.168749e-02	0.0	2.144700e-01	-5.126729e-02	0.0	2.016600e-01	-5.076993e-02	0.0	1.891400e-01	-5.019238e-02	0.0	1.769300e-01	-4.953284e-02	0.0	1.650400e-01	-4.878952e-02	0.0	1.534900e-01	-4.796177e-02	0.0	1.422900e-01	-4.704883e-02	0.0	1.314400e-01	-4.604934e-02	0.0	1.209500e-01	-4.496296e-02	0.0	1.108500e-01	-4.379208e-02	0.0	1.011300e-01	-4.253503e-02	0.0	9.181000e-02	-4.119389e-02	0.0	8.290000e-02	-3.976997e-02	0.0	7.440000e-02	-3.826304e-02	0.0	6.633000e-02	-3.667657e-02	0.0	5.869000e-02	-3.501058e-02	0.0	5.149000e-02	-3.326708e-02	0.0	4.474000e-02	-3.144844e-02	0.0	3.844000e-02	-2.955433e-02	0.0	3.260000e-02	-2.758711e-02	0.0	2.723000e-02	-2.554977e-02	0.0	2.232000e-02	-2.343708e-02	0.0	1.790000e-02	-2.126113e-02	0.0	1.395000e-02	-1.901092e-02	0.0	1.049000e-02	-1.669561e-02	0.0	7.520000e-03	-1.431461e-02	0.0	5.040000e-03	-1.186637e-02	0.0	3.050000e-03	-9.347302e-03	0.0	1.560000e-03	-6.769269e-03	0.0	5.600000e-04	-4.108233e-03	0.0	6.000000e-05	-1.363608e-03	0.0	0.000000e+00	0.000000e+00	0.0	6.000000e-05	1.350236e-03	0.0	5.600000e-04	4.050826e-03	0.0	1.560000e-03	6.663226e-03	0.0	3.050000e-03	9.195473e-03	0.0	5.040000e-03	1.167583e-02	0.0	7.520000e-03	1.409653e-02	0.0	1.049000e-02	1.646478e-02	0.0	1.395000e-02	1.878581e-02	0.0	1.790000e-02	2.106403e-02	0.0	2.232000e-02	2.329392e-02	0.0	2.723000e-02	2.549065e-02	0.0	3.260000e-02	2.764558e-02	0.0	3.844000e-02	2.976800e-02	0.0	4.474000e-02	3.185849e-02	0.0	5.149000e-02	3.391797e-02	0.0	5.869000e-02	3.595015e-02	0.0	6.633000e-02	3.795531e-02	0.0	7.440000e-02	3.993367e-02	0.0	8.290000e-02	4.188739e-02	0.0	9.181000e-02	4.381361e-02	0.0	1.011300e-01	4.571359e-02	0.0	1.108500e-01	4.758588e-02	0.0	1.209500e-01	4.942683e-02	0.0	1.314400e-01	5.123782e-02	0.0	1.422900e-01	5.301272e-02	0.0	1.534900e-01	5.474871e-02	0.0	1.650400e-01	5.644398e-02	0.0	1.769300e-01	5.809472e-02	0.0	1.891400e-01	5.969553e-02	0.0	2.016600e-01	6.124223e-02	0.0	2.144700e-01	6.272926e-02	0.0	2.275700e-01	6.415328e-02	0.0	2.409400e-01	6.550849e-02	0.0	2.545700e-01	6.679020e-02	0.0	2.684500e-01	6.799357e-02	0.0	2.825500e-01	6.911218e-02	0.0	2.968700e-01	7.014214e-02	0.0	3.114000e-01	7.107860e-02	0.0	3.261100e-01	7.191555e-02	0.0	3.409900e-01	7.264840e-02	0.0	3.560400e-01	7.327286e-02	0.0	3.712300e-01	7.378330e-02	0.0	3.865400e-01	7.417483e-02	0.0	4.019700e-01	7.444303e-02	0.0	4.175000e-01	7.458295e-02	0.0	4.331100e-01	7.458992e-02	0.0	4.487800e-01	7.445955e-02	0.0	4.645100e-01	7.418745e-02	0.0	4.802700e-01	7.376991e-02	0.0	4.960500e-01	7.320341e-02	0.0	5.118400e-01	7.248482e-02	0.0	5.276100e-01	7.161270e-02	0.0	5.433600e-01	7.058503e-02	0.0	5.590600e-01	6.940265e-02	0.0	5.747100e-01	6.806549e-02	0.0	5.902800e-01	6.657731e-02	0.0	6.057600e-01	6.494175e-02	0.0	6.211300e-01	6.316504e-02	0.0	6.363800e-01	6.125402e-02	0.0	6.515000e-01	5.921698e-02	0.0	6.664700e-01	5.706516e-02	0.0	6.812700e-01	5.481151e-02	0.0	6.958900e-01	5.246892e-02	0.0	7.103200e-01	5.005129e-02	0.0	7.245300e-01	4.757686e-02	0.0	7.385200e-01	4.505941e-02	0.0	7.522800e-01	4.251466e-02	0.0	7.657800e-01	3.996213e-02	0.0	7.790100e-01	3.741749e-02	0.0	7.919700e-01	3.489399e-02	0.0	8.046400e-01	3.240819e-02	0.0	8.170100e-01	2.997405e-02	0.0	8.290500e-01	2.760884e-02	0.0	8.407700e-01	2.532127e-02	0.0	8.521600e-01	2.312328e-02	0.0	8.631800e-01	2.103157e-02	0.0	8.738500e-01	1.905016e-02	0.0	8.841500e-01	1.718895e-02	0.0	8.940600e-01	1.545535e-02	0.0	9.035800e-01	1.385019e-02	0.0	9.127000e-01	1.237271e-02	0.0	9.214000e-01	1.102010e-02	0.0	9.296900e-01	9.781662e-03	0.0	9.375400e-01	8.650401e-03	0.0	9.449600e-01	7.612208e-03	0.0	9.519400e-01	6.656126e-03	0.0	9.584700e-01	5.772587e-03	0.0	9.645400e-01	4.954359e-03	0.0	9.701500e-01	4.195689e-03	0.0	9.752800e-01	3.496291e-03	0.0	9.799500e-01	2.852720e-03	0.0	9.841300e-01	2.270023e-03	0.0	9.878400e-01	1.747228e-03	0.0	9.910500e-01	1.290667e-03	0.0	9.937800e-01	8.994899e-04	0.0	9.960200e-01	5.767420e-04	0.0	9.977600e-01	3.250644e-04	0.0	9.990000e-01	1.452495e-04	0.0	9.997500e-01	3.632890e-05	0.0	1.000000e+00	0.000000e+00	0.0	1.984229e+01	2.506660e+00	0.0	1.937166e+01	4.973800e+00	0.0	1.859553e+01	7.362490e+00	0.0	1.752613e+01	9.635070e+00	0.0	1.618034e+01	1.175571e+01	0.0	1.457937e+01	1.369094e+01	0.0	1.274848e+01	1.541027e+01	0.0	1.071654e+01	1.688656e+01	0.0	8.515590e+00	1.809654e+01	0.0	6.180340e+00	1.902113e+01	0.0	3.747630e+00	1.964575e+01	0.0	1.255810e+00	1.996053e+01	0.0	-1.255810e+00	1.996053e+01	0.0	-3.747630e+00	1.964574e+01	0.0	-6.180340e+00	1.902113e+01	0.0	-8.515590e+00	1.809654e+01	0.0	-1.071654e+01	1.688656e+01	0.0	-1.274848e+01	1.541026e+01	0.0	-1.457937e+01	1.369094e+01	0.0	-1.618034e+01	1.175570e+01	0.0	-1.752613e+01	9.635070e+00	0.0	-1.859553e+01	7.362490e+00	0.0	-1.937166e+01	4.973800e+00	0.0	-1.984229e+01	2.506660e+00	0.0	-2.000000e+01	0.000000e+00	0.0	-1.984229e+01	-2.506670e+00	0.0	-1.937166e+01	-4.973800e+00	0.0	-1.859553e+01	-7.362490e+00	0.0	-1.752613e+01	-9.635080e+00	0.0	-1.618034e+01	-1.175571e+01	0.0	-1.457937e+01	-1.369094e+01	0.0	-1.274848e+01	-1.541027e+01	0.0	-1.071653e+01	-1.688656e+01	0.0	-8.515580e+00	-1.809654e+01	0.0	-6.180340e+00	-1.902113e+01	0.0	-3.747620e+00	-1.964575e+01	0.0	-1.255810e+00	-1.996053e+01	0.0	1.255810e+00	-1.996053e+01	0.0	3.747630e+00	-1.964574e+01	0.0	6.180340e+00	-1.902113e+01	0.0	8.515590e+00	-1.809654e+01	0.0	1.071654e+01	-1.688656e+01	0.0	1.274848e+01	-1.541026e+01	0.0	1.457937e+01	-1.369094e+01	0.0	1.618034e+01	-1.175570e+01	0.0	1.752614e+01	-9.635070e+00	0.0	1.859553e+01	-7.362490e+00	0.0	1.937166e+01	-4.973790e+00	0.0	1.984229e+01	-2.506660e+00	0.0	2.000000e+01	0.000000e+00	0.0	6.093892e-02	-4.285144e-02	0.0	6.600410e-01	-5.844939e-02	0.0	4.255297e-01	8.863687e-02	0.0	6.904536e-01	6.677179e-02	0.0	3.791252e-01	-6.656260e-02	0.0	9.994589e-01	-7.258723e-04	0.0	9.985402e-01	-1.320872e-03	0.0	7.738251e-01	-4.634860e-02	0.0	6.897588e-01	-5.606349e-02	0.0	-1.367138e-03	6.233161e-03	0.0	7.467650e-01	-4.997311e-02	0.0	5.838090e-01	8.122916e-02	0.0	9.927651e-01	-3.598793e-03	0.0	9.898616e-01	-4.480982e-03	0.0	5.994275e-01	7.958836e-02	0.0	7.187102e-01	-5.322760e-02	0.0	-1.548094e-03	7.305687e-04	0.0	9.864673e-01	-5.441292e-03	0.0	9.825916e-01	-6.470515e-03	0.0	-1.358171e-03	-6.336027e-03	0.0	6.449375e-01	-5.947833e-02	0.0	8.244939e-01	-3.842106e-02	0.0	7.997632e-01	-4.246746e-02	0.0	3.482204e-01	8.660152e-02	0.0	8.478910e-01	-3.434813e-02	0.0	2.468390e-01	7.862192e-02	0.0	8.698983e-01	-3.032503e-02	0.0	1.001408e-02	2.079824e-02	0.0	8.904116e-01	-2.642047e-02	0.0	7.722818e-02	-4.682321e-02	0.0	9.093595e-01	-2.267674e-02	0.0	-1.865007e-03	-3.138557e-03	0.0	9.422484e-01	-1.580904e-02	0.0	9.266631e-01	-1.912583e-02	0.0	1.806769e-02	-2.637803e-02	0.0	4.256782e-01	-6.623083e-02	0.0	8.590773e-01	-3.232303e-02	0.0	9.560748e-01	-1.276843e-02	0.0	9.782290e-01	-7.589010e-03	0.0	9.680882e-01	-1.002215e-02	0.0	1.584746e-01	-5.900398e-02	0.0	9.000881e-01	-2.452666e-02	0.0	7.604299e-01	-4.820093e-02	0.0	9.971132e-01	-2.058079e-03	0.0	5.988429e-01	-6.197001e-02	0.0	4.413590e-01	-6.604490e-02	0.0	5.361230e-01	-6.418097e-02	0.0	4.728882e-01	-6.557080e-02	0.0	5.045102e-01	-6.495629e-02	0.0	4.886866e-01	-6.528085e-02	0.0	1.251652e-01	-5.514410e-02	0.0	2.799454e-02	-3.148915e-02	0.0	3.945492e-01	-6.649285e-02	0.0	4.640172e-02	-3.855324e-02	0.0	4.100682e-01	-6.638196e-02	0.0	3.187978e-01	-6.636792e-02	0.0	3.486567e-01	-6.657206e-02	0.0	3.367005e-02	-3.391128e-02	0.0	2.896281e-01	-6.592628e-02	0.0	9.346743e-01	-1.743395e-02	0.0	1.470184e-01	-5.780948e-02	0.0	1.948400e-01	-6.200962e-02	0.0	8.600599e-02	-4.867547e-02	0.0	1.048018e-01	-5.210645e-02	0.0	5.676108e-01	-6.321237e-02	0.0	1.702734e-01	-6.010386e-02	0.0	6.143295e-01	-6.122907e-02	0.0	8.803501e-01	-2.835590e-02	0.0	2.280418e-02	-2.897635e-02	0.0	9.951875e-01	-2.803889e-03	0.0	6.796488e-03	-1.820110e-02	0.0	1.798544e-02	2.626178e-02	0.0	9.182203e-01	-2.087471e-02	0.0	9.49388
[...]
POINT_DATA 5233

SCALARS Conservative_1 float 1
LOOKUP_TABLE default
4.254114e-01	2.154124e-01	1.754154e-01	1.461699e-01	1.270917e-01	1.125517e-01	1.009891e-01	9.162285e-02	8.394342e-02	7.758162e-02	7.225568e-02	6.777225e-02	6.394955e-02	6.068297e-02	5.786272e-02	5.541567e-02	5.327749e-02	5.128113e-02	4.940450e-02	4.769452e-02	4.631399e-02	4.515756e-02	4.421136e-02	4.344471e-02	4.277777e-02	4.227314e-02	4.181646e-02	4.148639e-02	4.115997e-02	4.087846e-02	4.061252e-02	4.026524e-02	3.995175e-02	3.947939e-02	3.901005e-02	3.838911e-02	3.776367e-02	3.699812e-02	3.624915e-02	3.538650e-02	3.456574e-02	3.366401e-02	3.283010e-02	3.194341e-02	3.114069e-02	3.031511e-02	2.957161e-02	2.883782e-02	2.816894e-02	2.753189e-02	2.694970e-02	2.639971e-02	2.587934e-02	2.541722e-02	2.495961e-02	2.456596e-02	2.416803e-02	2.382090e-02	2.346219e-02	2.314372e-02	2.280646e-02	2.250294e-02	2.216967e-02	2.186262e-02	2.151896e-02	2.119250e-02	2.082422e-02	2.046553e-02	2.006449e-02	1.965387e-02	1.921297e-02	1.874012e-02	1.824829e-02	1.771057e-02	1.714664e-02	1.654738e-02	1.589825e-02	1.521738e-02	1.448338e-02	1.370781e-02	1.287439e-02	1.199046e-02	1.104548e-02	1.003971e-02	8.963200e-03	7.819052e-03	6.594461e-03	5.292151e-03	3.911702e-03	2.445624e-03	9.315303e-04	-4.640732e-04	-2.213536e-03	-4.601836e-03	-2.267320e-03	5.874092e-03	7.909805e-03	2.576059e-03	-4.433638e-03	-1.087924e-02	-1.688088e-02	-2.992867e-02	-4.993783e-02	-6.615381e-02	-7.788095e-02	-9.677131e-02	-1.239817e-01	-1.460393e-01	-1.570299e-01	-1.612727e-01	-1.633523e-01	-1.644907e-01	-1.645334e-01	-1.630538e-01	-1.602425e-01	-1.564662e-01	-1.521927e-01	-1.478922e-01	-1.439801e-01	-1.406446e-01	-1.379310e-01	-1.359483e-01	-1.347404e-01	-1.342268e-01	-1.340323e-01	-1.338562e-01	-1.336068e-01	-1.333401e-01	-1.331650e-01	-1.331555e-01	-1.331299e-01	-1.330799e-01	-1.327707e-01	-1.321627e-01	-1.313255e-01	-1.303421e-01	-1.295324e-01	-1.287374e-01	-1.277265e-01	-1.257042e-01	-1.224815e-01	-1.174842e-01	-1.097060e-01	-9.762007e-02	-8.412249e-02	-7.597535e-02	-7.472100e-02	-7.690509e-02	-7.912636e-02	-8.052829e-02	-8.122862e-02	-8.157957e-02	-8.141830e-02	-8.085641e-02	-7.997684e-02	-7.875704e-02	-7.746953e-02	-7.593825e-02	-7.433660e-02	-7.267735e-02	-7.091990e-02	-6.923547e-02	-6.746961e-02	-6.584551e-02	-6.417441e-02	-6.268296e-02	-6.117858e-02	-5.987768e-02	-5.858577e-02	-5.751039e-02	-5.646023e-02	-5.564307e-02	-5.484314e-02	-5.429766e-02	-5.385634e-02	-5.360440e-02	-5.357610e-02	-5.375730e-02	-5.427193e-02	-5.504310e-02	-5.632740e-02	-5.791136e-02	-5.976082e-02	-6.180005e-02	-6.423356e-02	-6.698908e-02	-7.015962e-02	-7.369819e-02	-7.770199e-02	-8.221812e-02	-8.740211e-02	-9.339834e-02	-1.004634e-01	-1.088603e-01	-1.190049e-01	-1.313764e-01	-1.502078e-01	-1.663298e-01	-3.172990e-01	4.110007e-02	-1.028569e-04	-1.130999e-04	-1.227950e-04	-1.311210e-04	-1.413657e-04	-1.492770e-04	-1.581517e-04	-1.615055e-04	-1.565187e-04	-1.556721e-04	-1.621690e-04	-1.648405e-04	-1.687001e-04	-1.620528e-04	-1.448239e-04	-1.369175e-04	-1.193724e-04	-1.065431e-04	-9.221891e-05	-7.368605e-05	-4.802128e-05	-3.180395e-05	2.509229e-05	1.575310e-04	1.113777e-04	1.343983e-04	1.973602e-04	2.066673e-04	1.283294e-04	1.592167e-04	1.858693e-04	2.002568e-04	2.118200e-04	2.142686e-04	2.141030e-04	2.039793e-04	1.716912e-04	1.430694e-04	8.792145e-05	6.565706e-05	5.506929e-05	3.545578e-05	1.572246e-05	-4.780168e-06	-2.381690e-05	-4.062606e-05	-5.507366e-05	-6.895561e-05	-8.115857e-05	-9.260010e-05	9.644307e-03	3.166756e-02	-6.450389e-02	-5.910903e-02	2.117437e-02	3.303251e-01	2.364228e-01	3.673445e-02	3.315564e-02	-3.060539e-02	3.568787e-02	-6.689552e-02	1.251420e-01	1.094440e-01	-6.594528e-02	3.450971e-02	-1.284565e-02	9.758346e-02	8.832330e-02	4.038904e-03	3.091256e-02	3.881838e-02	3.772841e-02	-9.777624e-02	4.016807e-02	-1.090602e-01	4.194170e-02	-1.061237e-01	4.437334e-02	1.131040e-02	4.777763e-02	-1.640644e-03	5.601979e-02	5.161470e-02	1.637856e-03	2.222386e-02	4.098076e-02	6.180458e-02	8.087096e-02	6.969914e-02	1.603514e-02	4.595260e-02	3.625025e-02	1.794106e-01	2.857637e-02	2.263596e-02	2.578269e-02	2.353797e-02	2.459145e-02	2.405253e-02	1.456520e-02	4.283038e-03	2.149656e-02	7.717818e-03	2.185885e-02	1.999093e-02	2.056069e-02	5.503741e-03	1.943445e-02	5.369905e-02	1.558371e-02	1.724492e-02	1.205549e-02	1.339819e-02	2.711621e-02	1.646917e-02	2.935804e-02	4.305080e-02	2.997729e-03	1.469635e-01	-2.837475e-03	-1.321605e-01	4.968963e-02	5.869434e-02	7.476482e-02	-4.447410e-02	3.943345e-02	1.856153e-02	2.644250e-02	3.513706e-02	3.723854e-02	1.400398e-02	1.793647e-02	2.784848e-02	3.244341e-02	8.713349e-03	-3.577862e-03	3.156209e-04	2.085209e-02	1.686739e-02	4.456254e-01	1.826322e-02	1.275309e-02	1.970272e-02	1.886740e-02	2.306746e-02	3.387242e-02	-1.911436e-02	6.158516e-03	-6.862292e-02	-7.835630e-03	-1.399320e-01	-1.382773e-01	-1.421046e-01	-1.157911e-01	-6.737503e-02	-1.590724e-01	-6.861873e-02	-6.672547e-02	-7.934705e-02	-7.117706e-02	-5.248193e-02	-6.765275e-02	-6.452679e-02	-8.557671e-02	-5.817177e-02	-5.495345e-02	-1.268908e-01	-8.440698e-02	-6.781089e-02	-6.228890e-02	-1.201682e-01	-1.348284e-01	-1.052707e-01	-1.079447e-01	-1.122184e-01	-1.024869e-01	-6.556460e-02	-7.590312e-02	-1.132777e-01	-1.145531e-01	-6.381618e-02	-1.112911e-01	-1.104899e-01	-6.147028e-02	-6.764844e-02	-5.491648e-02	-5.688863e-02	-5.202528e-02	-5.328142e-02	-5.090869e-02	-5.123210e-02	-5.357578e-02	-5.123092e-02	-6.487574e-02	-5.651165e-02	-7.498220e-02	-5.098639e-02	-5.172583e-02	-5.153839e-02	-5.097509e-02	-5.402796e-02	-5.257790e-02	-5.794728e-02	-5.583910e-02	-6.264000e-02	-6.025700e-02	-6.827180e-02	-6.493375e-02	-1.109349e-01	-1.098945e-01	-1.127663e-01	-1.117208e-01	-1.408538e-01	-1.138014e-01	-1.233961e-01	-1.417432e-01	1.760488e-02	-6.285198e-02	6.542807e-02	3.823874e-02	2.026358e-02	2.517349e-02	-5.388077e-02	-1.368648e-01	-8.194648e-02	-1.232549e-01	-1.308908e-01	-1.066600e-01	-1.176558e-01	-9.041291e-02	-9.766459e-02	-1.039329e-01	-1.067907e-01	-1.186774e-01	-1.006372e-01	-9.313465e-02	-6.010667e-02	-3.730326e-01	-2.014041e-01	-2.683479e-01	3.011549e-02	6.648181e-03	-1.350132e-01	-6.830918e-02	1.219201e-03	-9.233462e-04	1.050638e-02	1.509316e-02	1.914532e-02	-1.104394e-01	-2.840698e-02	-1.935503e-02	1.675366e-02	2.952036e-02	4.664747e-02	-1.207197e-03	-5.549307e-02	2.884644e-02	3.352393e-02	1.036886e-01	1.749717e-02	3.817948e-02	3.638140e-02	1.112299e-02	3.776310e-03	1.549995e-02	1.108867e-03	6.221837e-02	1.392472e-02	3.025784e-02	2.740981e-02	1.991104e-02	1.052150e-02	1.856944e-02	4.310923e-02	3.417994e-02	-7.085184e-02	-1.108300e-01	-5.157732e-02	-4.745650e-02	-9.807323e-02	-5.084056e-02	-9.196446e-02	-4.887213e-02	-1.014799e-01	-7.374177e-02	-5.658620e-02	-6.408456e-02	-4.969342e-02	-1.127526e-01	-6.718172e-02	-8.559027e-02	-8.696913e-02	-7.721439e-02	-8.803234e-02	-1.005183e-01	2.809159e-02	1.520960e-02	-8.972309e-02	-9.349170e-02	-1.192699e-01	-7.490041e-02	-1.275823e-01	-5.066546e-02	1.426255e-02	-1.200590e-01	-1.720778e-01	-1.484754e-01	-5.337237e-02	-3.771230e-02	-2.828633e-03	-5.608345e-03	-9.754315e-03	2.320303e-03	1.480118e-01	9.150280e-03	1.919308e-01	1.362930e-01	-5.175370e-02	2.275072e-02	9.269443e-02	4.038004e-02	-5.501152e-02	1.176942e-01	-4.537775e-04	1.953210e-02	-5.070912e-02	3.720749e-02	-8.306991e-02	3.920899e-02	4.167057e-02	9.862582e-03	4.477242e-02	4.869755e-02	5.572792e-02	4.601525e-03	5.872022e-02	6.630645e-02	8.404000e-02	1.311941e-02	3.219710e-02	3.289405e-02	1.618995e-01	2.030202e-02	2.071961e-02	2.119345e-02	3.489477e-03	1.885842e-02	1.920565e-02	1.773325e-02	6.626425e-03	5.080825e-02	5.311153e-02	1.353530e-02	1.168555e-02	2.336394e-02	2.526437e-02	7.115039e-02	7.694656e-02	3.089456e-02	3.159560e-02	1.219551e-02	1.268714e-02	2.394933e-02	2.462919e-02	7.532391e-03	8.375618e-03	4.354624e-05	1.800974e-02	1.826885e-02	1.460846e-02	1.491653e-02	1.575418e-02	1.602376e-02	1.700772e-02	1.723565e-02	1.626490e-02	-1.332776e-02	-1.447352e-03	-1.204991e-01	-9.261984e-02	-5.661143e-02	-5.625296e-02	-5.597686e-02	-5.567749e-02	-7.974914e-02	-7.076889e-02	-5.512627e-02	-5.526543e-02	-5.397338e-02	-5.396079e-02	-5.339898e-02	-6.134956e-02	-1.139939e-01	-1.169861e-01	-8.581507e-02	-8.448787e-02	-9.266375e-02	-9.462692e-02	-9.613515e-02	-4.725753e-02	-4.852139e-02	-4.907392e-02	-4.751797e-02	-4.728155e-02	-5.190767e-02	-4.827550e-02	-4.778658e-02	-4.713430e-02	-4.720227e-02	-4.774234e-02	-4.814607e-02	-4.957873e-02	-5.023804e-02	-5.223765e-02	-5.299168e-02	-5.605969e-02	-5.643893e-02	-5.368083e-02	-5.434359e-02	-8.896275e-02	-8.972742e-02	-9.051707e-02	-9.123689e-02	-1.028984e-01	-1.203656e-01	-1.187945e-01	3.488516e-02	3.557717e-02	2.167852e-02	2.221880e-02	-4.401476e-02	-1.157632e-01	-1.034019e-01	-1.067623e-01	-7.959492e-02	-8.141241e-02	-6.107172e-02	-6.830644e-02	-5.902085e-02	-5.692707e-02	2.599093e-02	2.665808e-02	5.650216e-03	3.154545e-03	1.652735e-02	1.432260e-04	1.620955e-02	1.448398e-02	3.081594e-02	1.960181e-02	4.508325e-02	-9.799766e-02	-9.011941e-02	-6.536235e-02	-3.757830e-02	-1.065731e-01	-2.199946e-01	-2.003189e-01	1.475278e-01	7.959829e-03	2.935422e-03	-1.180378e-02	1.009064e-02	4.720655e-02	1.012827e-01	-4.645918e-02	2.495704e-01	-1.375160e-03	2.657789e-02	6.672263e-04	2.726275e-02	1.905670e-03	3.732243e-02	-2.479971e-05	1.517827e-02	3.617890e-02	2.584861e-02	1.120353e-01	8.923590e-04	-7.791202e-02	-4.698359e-02	-5.946784e-02	-4.439396e-02	-1.182927e-01	-4.680419e-02	-6.421981e-02	-5.301387e-02	-7.344206e-02	-9.391992e-02	-2.189945e-01	2.513545e-03	-2.517842e-02	-8.423468e-02	-1.821842e-02	6.158327e-02	9.637516e-03	-8.316408e-03	1.221353e-02	1.749428e-02	3.931885e-03	-6.027885e-02	-4.381881e-02	-4.284687e-02	-4.404278e-02	-8.353799e-02	-6.223961e-02	-4.722005e-02	-4.625061e-02	-5.758820e-02	-6.283110e-02	-6.757013e-02	-8.208098e-02	2.445107e-02	2.516321e-02	1.318458e-02	-7.384166e-02	-7.440667e-02	-7.306806e-02	-1.354806e-01	-4.672161e-02	-3.170142e-02	-1.874419e-03	-4.410866e-03	4.870907e-03	2.224725e-01	2.502879e-01	6.581591e-02	9.156647e-02	-4.606300e-02	1.714817e-02	-4.075892e-02	3.417479e-02	3.510541e-02	3.856294e-02	3.993385e-02	8.563449e-03	9.124757e-03	4.141811e-02	4.317475e-02	5.475179e-02	5.792036e-02	8.345884e-02	2.933239e-02	3.014725e-02	1.266726e-01	1.789690e-02	1.824995e-02	1.647770e-02	1.682094e-02	5.730823e-03	4.950106e-02	5.195365e-02	1.160372e-02	1.191287e-02	2.014000e-02	2.066256e-02	7.073996e-02	7.659348e-02	2.801587e-02	2.871832e-02	1.051512e-02	1.091299e-02	1.128835e-02	2.125483e-02	2.183648e-02	6.534998e-03	7.275773e-03	7.962963e-03	1.539363e-02	1.567305e-02	1.590759e-02	1.246621e-02	1.271953e-02	1.297500e-02	1.343241e-02	1.362106e-02	1.472474e-02	1.492382e-02	1.386169e-02	-9.870661e-02	-4.676053e-02	-4.676469e-02	-6.895853e-02	-4.675271e-02	-4.614337e-02	-4.423167e-02	-3.684438e-02	-5.120993e-02	-9.614918e-02	-9.773679e-02	-6.539014e-02	-6.638889e-02	-7.580256e-02	-7.756221e-02	-7.959999e-02	-4.304491e-02	-4.968966e-02	-4.829586e-02	-4.549099e-02	-4.477006e-02	-4.424142e-02	-4.332201e-02	-4.320639e-02	-4.302176e-02	-4.285198e-02	-4.283273e-02	-4.293994e-02	-4.326162e-02	-4.346537e-02	-4.375925e-02	-4.472912e-02	-4.680790e-02	-4.690517e-02	-4.511062e-02	-4.543680e-02	-4.584495e-02	-6.870682e-02	-6.979586e-02	-7.085240e-02	-7.180092e-02	-7.265875e-02	-9.889943e-02	-9.805281e-02	3.163789e-02	3.244768e-02	3.324760e-02	1.865178e-02	1.915659e-02	-9.572842e-02	-9.134816e-02	-8.484889e-02	-8.792465e-02	-9.106498e-02	-6.068214e-02	-3.635932e-02	-4.046347e-02	-4.700030e-02	-5.707647e-02	-5.489617e-02	-5.300319e-02	2.247994e-02	2.310696e-02	2.378817e-02	1.405889e-02	1.429579e-02	-3.825118e-04	9.042121e-03	-1.036614e-01	-7.401511e-02	1.780141e-02	-1.235186e-02	1.549775e-01	4.343280e-02	4.562745e-02	5.093611e-03	-9.007690e-02	-4.006270e-02	7.657719e-04	-6.016142e-02	6.288760e-05	-5.979556e-02	-9.575578e-02	-2.301380e-02	-3.958285e-02	-2.807083e-02	-8.569041e-02	9.935425e-02	2.905466e-02	1.062679e-02	3.522169e-03	1.424682e-02	8.724364e-03	1.517041e-02	1.253970e-02	-7.875355e-02	-4.021329e-02	-5.715230e-02	-5.482991e-02	-3.921429e-02	-5.837001e-02	-4.958396e-02	8.616167e-02	-7.723006e-02	3.452274e-02	-1.408350e-01	-8.411436e-02	1.101652e-01	6.377870e-02	2.680890e-03	2.387237e-02	-8.360595e-04	2.435981e-02	2.534184e-02	1.796501e-03	9.354658e-02	1.003226e-03	-4.072603e-02	-4.062183e-02	-4.208513e-02	-1.768303e-02	-5.048250e-02	-3.902713e-02	-4.392921e-02	-3.691800e-02	-4.605429e-02	-4.814207e-02	2.249905e-02	2.295775e-02	-6.975799e-02	-4.086812e-02	-3.339965e-02	-2.697487e-04	-3.273495e-03	4.354560e-03	5.981939e-02	7.942368e-02	-3.986245e-02	3.243781e-02	3.337317e-02	3.566589e-02	3.695014e-02	7.937572e-03	8.349494e-03	3.827339e-02	3.981565e-02	4.160688e-02	5.319632e-02	5.630332e-02	2.747694e-02	2.805380e-02	1.007076e-01	1.558466e-02	1.600004e-02	1.447897e-02	1.486640e-02	4.795881e-02	5.040698e-02	1.016439e-02	1.033121e-02	1.810530e-02	6.831702e-02	7.354345e-02	2.590856e-02	2.655028e-02	9.362678e-03	9.612813e-03	9.952210e-03	1.882270e-02	1.917596e-02	5.768499e-03	6.396254e-03	6.988030e-03	7.500106e-03	1.317091e-02	1.342984e-02	1.366321e-02	1.395368e-02	1.076447e-02	1.100720e-02	1.116591e-02	1.138507e-02	1.154027e-02	1.296196e-02	1.272679e-02	1.175281e-02	-4.014105e-02	-6.603030e-02	-6.273338e-02	-4.008928e-02	-3.981956e-02	-3.887849e-02	-3.673842e-02	-3.300563e-02	-7.793176e-02	-7.836655e-02	-5.024105e-02	-5.120995e-02	-5.972538e-02	-6.164510e-02	-6.367114e-02	-6.610772e-02	-4.736255e-02	-4.604176e-02	-4.486456e-02	-4.303699e-02	-4.229972e-02	-4.158206e-02	-4.113156e-02	-4.004922e-02	-3.989958e-02	-3.977241e-02	-3.936381e-02	-3.892199e-02	-3.919525e-02	-3.881197e-02	-3.919392e-02	-3.885465e-02	-3.933227e-02	-4.017549e-02	-4.076436e-02	-3.929017e-02	-3.990869e-02	-3.962037e-02	-4.023003e-02	-5.207948e-02	-5.325495e-02	-5.428003e-02	-5.549571e-02	-5.643924e-02	-5.732744e-02	-7.873751e-02	-7.879068e-02	2.973479e-02	3.052807e-02	3.147996e-02	1.626544e-02	1.689404e-02	1.715672e-02	-7.757212e-02	-7.411746e-02	-6.822697e-02	-6.879169e-02	-7.162590e-02	-7.415852e-02	-7.602771e-02	-2.782935e-02	-2.475406e-02	-2.620056e-02	-3.090329e-02	-4.895269e-02	-5.265819e-02	-5.080621e-02	1.995536e-02	2.035243e-02	2.118485e-02	2.161815e-02	1.192710e-02	1.214760e-02	1.231844e-02	2.634887e-03	-9.084726e-02	5.722268e-02	-1.511090e-01	1.934753e-03	2.320667e-02	8.111389e-03	1.201830e-03	-6.566646e-02	2.186625e-04	4.683220e-03	9.245499e-03	-4.791200e-02	-4.179433e-02	-2.515152e-02	-1.268576e-02	-8.235878e-03	-6.844628e-03	-8.450033e-03	-1.625369e-05	9.517660e-02	-2.496468e-02	6.071690e-02	7.859571e-02	4.415103e-02	2.710648e-02	1.263203e-02	-8.074718e-02	-4.579454e-02	-5.048591e-02	-3.598171e-02	-3.578847e-02	-3.550652e-02	-3.628796e-02	-3.529041e-02	1.592479e-02	-2.066078e-02	-7.692476e-02	7.866468e-03	-1.612595e-01	-6.908128e-02	-6.189521e-03	1.687022e-01	1.803705e-01	4.236441e-02	5.225064e-03	-1.301707e-03	-4.854834e-02	4.708627e-04	-5.464409e-02	-2.114676e-02	-3.138345e-02	3.408525e-02	3.350796e-03	1.131728e-02	1.097342e-02	-7.267537e-02	-3.543642e-02	-5.251486e-02	7.330014e-02	2.173110e-02	-1.703235e-02	-3.205018e-02	-3.481943e-02	-3.875502e-02	2.038117e-02	-3.516495e-02	-2.960693e-02	-3.272471e-03	4.031425e-03	3.115737e-02	3.231535e-02	3.328590e-02	3.463959e-02	7.596647e-03	7.322441e-03	3.572313e-02	3.723467e-02	3.852254e-02	4.020287e-02	5.119981e-02	5.407037e-02	2.546083e-02	8.324713e-02	1.376097e-02	1.402589e-02	1.306950e-02	1.323516e-02	4.627788e-02	4.859747e-02	8.866920e-03	9.172441e-03	6.459026e-02	6.881189e-02	2.413739e-02	8.263160e-03	8.614662e-03	8.816884e-03	1.687881e-02	5.718432e-03	6.206296e-03	6.624803e-03	7.017168e-03	1.138237e-02	1.174699e-02	1.183076e-02	1.224538e-02	1.242305e-02	9.528827e-03	9.566771e-03	9.856611e-03	9.888300e-03	1.018442e-02	-6.252001e-02	-5.964225e-02	-5.704082e-02	-3.568255e-02	-3.495989e-02	-3.502346e-02	-3.363694e-02	-3.215425e-02	-6.091044e-02	-6.065883e-02	-3.895046e-02	-4.059991e-02	-5.048593e-02	-5.172634e-02	-5.388866e-02	-4.420390e-02	-4.325506e-02	-4.210867e-02	-4.143627e-02	-4.041974e-02	-3.984627e-02	-3.903131e-02	-3.832822e-02	-3.737678e-02	-3.699848e-02	-3.587018e-02	-3.561772e-02	-3.550859e-02	-3.560496e-02	-3.568154e-02	-4.032989e-02	-4.198003e-02	-4.199814e-02	-4.406787e-02	-4.427943e-02	-4.521932e-02	-4.647664e-02	-6.104809e-02	-6.184393e-02	2.825278e-02	2.934919e-02	3.017045e-02	1.435221e-02	1.505632e-02	-6.172047e-02	-5.924965e-02	-5.453233e-02	-5.626915e-02	-5.857796e-02	-6.037346e-02	-6.113625e-02	-6.106419e-02	-2.797793e-02	-2.227587e-02	-1.858726e-02	-1.690467e-02	-4.868765e-02	-4.718055e-02	1.795377e-02	1.912319e-02	1.023265e-02	1.055566e-02	1.059760e-02	1.091926e-02	1.826624e-01	-1.638293e-01	2.173239e-03	-9.189624e-03	8.146745e-02	5.652768e-02	-6.617835e-02	-1.638069e-02	-5.172310e-02	9.351212e-02	6.263345e-02	-4.030549e-03	4.906760e-03	2.794313e-03	-1.283608e-02	-7.804659e-02	-2.998229e-02	-1.947085e-02	3.361113e-03	5.371954e-02	1.367527e-02	-6.323127e-02	9.906460e-03	4.241986e-02	4.000784e-02	1.655874e-02	7.245884e-03	8.289621e-03	4.613774e-04	1.156162e-02	6.937662e-03	7.135262e-03	-4.361212e-02	-5.824259e-02	-4.341819e-02	-1.319348e-02	-3.442523e-02	5.106572e-02	-1.496102e-01	-6.062267e-02	-7.366534e-03	-1.938192e-03	6.623422e-02	2.163972e-02	-3.154203e-02	-3.174594e-02	-6.961067e-02	-8.746436e-04	-8.947600e-02	-5.213573e-03	1.685280e-01	5.265912e-03	1.374083e-03	1.648474e-03	-3.182499e-02	4.435838e-03	-4.991228e-02	-4.829000e-02	-3.173647e-02	-2.015418e-02	-2.839978e-02	2.037282e-02	-2.604103e-02	-2.258981e-02	3.911291e-03	3.061953e-02	3.292610e-02	6.715840e-03	3.543698e-02	3.737704e-02	4.860429e-02	7.036632e-02	1.220069e-02	4.427975e-02	4.634896e-02	7.999135e-03	5.944098e-02	2.274321e-02	2.420075e-02	7.596852e-03	7.775306e-03	1.452223e-02	5.632603e-03	5.929789e-03	6.286290e-03	6.539476e-03	1.030646e-02	1.080425e-02	1.107384e-02	8.559436e-03	8.854389e-03	-5.591969e-02	-5.374492e-02	-3.108044e-02	-2.865024e-02	-4.662795e-02	-3.223577e-02	-4.570860e-02	-3.456892e-02	-4.114950e-02	-3.929379e-02	-3.768119e-02	-3.626834e-02	-3.529134e-02	-3.377316e-02	-3.305037e-02	-3.253603e-02	-3.218446e-02	-3.195252e-02	-3.183147e-02	-3.175342e-02	-3.168156e-02	-3.374805e-02	-3.552899e-02	-3.661206e-02	-3.875754e-02	-4.004753e-02	-4.685474e-02	-4.814840e-02	2.575626e-02	2.755257e-02	2.886144e-02	1.258114e-02	1.296683e-02	-4.871270e-02	-4.706392e-02	-4.333588e-02	-3.896571e-02	-4.750596e-02	-4.889032e-02	-4.967564e-02	-4.932193e-02	-4.806867e-02	-4.864126e-02	-2.220539e-02	-1.451240e-02	-4.703073e-02	-4.524608e-02	1.549265e-02	1.772159e-02	1.899219e-02	9.191044e-03	9.535588e-03	-7.097767e-02	1.504967e-01	1.488692e-01	-9.758564e-02	5.792264e-03	-6.142610e-02	-4.091087e-02	8.302796e-02	2.579009e-03	3.949432e-03	1.031766e-01	7.200219e-02	-2.271425e-02	-1.330151e-02	-4.989284e-03	-4.989138e-02	2.055322e-02	-1.087883e-02	-8.055146e-02	3.427474e-02	4.710411e-03	-3.750769e-02	-2.543031e-02	3.013060e-03	1.003925e-02	4.036919e-02	1.583488e-02	1.291598e-02	4.935497e-02	5.152966e-02	5.010366e-03	5.275639e-03	-1.112788e-01	-5.553451e-02	-5.772641e-02	-4.687880e-02	-1.384405e-02	-2.910701e-02	1.823127e-02	6.188558e-03	-1.356558e-01	-1.365192e-01	-7.244825e-03	4.725544e-02	-4.832759e-02	4.044771e-02	5.391191e-02	-1.553754e-02	3.532343e-03	1.215349e-02	-1.663601e-03	6.292888e-03	6.382699e-03	-5.349196e-02	-1.017308e-02	4.534801e-02	5.645706e-02	1.944480e-02	-5.361322e-03	1.195734e-01	6.007180e-03	1.721590e-03	2.521593e-03	-2.892166e-02	4.339722e-03	-4.561514e-02	-2.906944e-02	-8.349400e-03	-2.921921e-02	-2.016807e-02	-1.782791e-02	2.957615e-02	3.198766e-02	3.642552e-02	3.869527e-02	6.073734e-02	1.057446e-02	4.191602e-02	4.355704e-02	9.669545e-03	2.466540e-02	2.616325e-02	2.175340e-02	6.449813e-03	6.673378e-03	6.761145e-03	5.496165e-03	8.758419e-03	9.213022e-03	6.916104e-03	7.130989e-03	1.698701e-02	-5.164275e-02	-2.873717e-02	-2.837103e-02	-4.002906e-02	-3.966693e-02	-3.766022e-02	-3.263732e-02	-3.588833e-02	-3.447336e-02	-3.342763e-02	-3.194297e-02	-3.125725e-02	-3.065357e-02	-3.019391e-02	-2.985071e-02	-2.958664e-02	-2.939370e-02	-2.104203e-02	-2.524510e-02	-2.730621e-02	-2.964938e-