# vtk DataFile Version 3.0
vtk output
ASCII
DATASET UNSTRUCTURED_GRID
POINTS 5233 float
9.997500e-01	-3.632909e-05	0.0	9.990000e-01	-1.452618e-04	0.0	9.977600e-01	-3.252008e-04	0.0	9.960200e-01	-5.774943e-04	0.0	9.937800e-01	-9.022942e-04	0.0	9.910500e-01	-1.298763e-03	0.0	9.878400e-01	-1.766726e-03	0.0	9.841300e-01	-2.311194e-03	0.0	9.799500e-01	-2.930640e-03	0.0	9.752800e-01	-3.631444e-03	0.0	9.701500e-01	-4.412625e-03	0.0	9.645400e-01	-5.280292e-03	0.0	9.584700e-01	-6.233365e-03	0.0	9.519400e-01	-7.272227e-03	0.0	9.449600e-01	-8.393908e-03	0.0	9.375400e-01	-9.593773e-03	0.0	9.296900e-01	-1.086609e-02	0.0	9.214000e-01	-1.220804e-02	0.0	9.127000e-01	-1.361074e-02	0.0	9.035800e-01	-1.507272e-02	0.0	8.940600e-01	-1.658877e-02	0.0	8.841500e-01	-1.815610e-02	0.0	8.738500e-01	-1.977361e-02	0.0	8.631800e-01	-2.143627e-02	0.0	8.521600e-01	-2.313752e-02	0.0	8.407700e-01	-2.487471e-02	0.0	8.290500e-01	-2.663345e-02	0.0	8.170100e-01	-2.840162e-02	0.0	8.046400e-01	-3.016792e-02	0.0	7.919700e-01	-3.191393e-02	0.0	7.790100e-01	-3.362378e-02	0.0	7.657800e-01	-3.528073e-02	0.0	7.522800e-01	-3.687177e-02	0.0	7.385200e-01	-3.838440e-02	0.0	7.245300e-01	-3.980643e-02	0.0	7.103200e-01	-4.113073e-02	0.0	6.958900e-01	-4.235375e-02	0.0	6.812700e-01	-4.347212e-02	0.0	6.664700e-01	-4.448693e-02	0.0	6.515000e-01	-4.540154e-02	0.0	6.363800e-01	-4.622067e-02	0.0	6.211300e-01	-4.695082e-02	0.0	6.057600e-01	-4.760016e-02	0.0	5.902800e-01	-4.817747e-02	0.0	5.747100e-01	-4.869148e-02	0.0	5.590600e-01	-4.915119e-02	0.0	5.433600e-01	-4.956464e-02	0.0	5.276100e-01	-4.993996e-02	0.0	5.118400e-01	-5.028359e-02	0.0	4.960500e-01	-5.060149e-02	0.0	4.802700e-01	-5.089775e-02	0.0	4.645100e-01	-5.117554e-02	0.0	4.487800e-01	-5.143670e-02	0.0	4.331100e-01	-5.168146e-02	0.0	4.175000e-01	-5.190932e-02	0.0	4.019700e-01	-5.211839e-02	0.0	3.865400e-01	-5.230586e-02	0.0	3.712300e-01	-5.246816e-02	0.0	3.560400e-01	-5.260130e-02	0.0	3.409900e-01	-5.270061e-02	0.0	3.261100e-01	-5.276113e-02	0.0	3.114000e-01	-5.277790e-02	0.0	2.968700e-01	-5.274582e-02	0.0	2.825500e-01	-5.265996e-02	0.0	2.684500e-01	-5.251559e-02	0.0	2.545700e-01	-5.230801e-02	0.0	2.409400e-01	-5.203324e-02	0.0	2.275700e-01	-5.168749e-02	0.0	2.144700e-01	-5.126729e-02	0.0	2.016600e-01	-5.076993e-02	0.0	1.891400e-01	-5.019238e-02	0.0	1.769300e-01	-4.953284e-02	0.0	1.650400e-01	-4.878952e-02	0.0	1.534900e-01	-4.796177e-02	0.0	1.422900e-01	-4.704883e-02	0.0	1.314400e-01	-4.604934e-02	0.0	1.209500e-01	-4.496296e-02	0.0	1.108500e-01	-4.379208e-02	0.0	1.011300e-01	-4.253503e-02	0.0	9.181000e-02	-4.119389e-02	0.0	8.290000e-02	-3.976997e-02	0.0	7.440000e-02	-3.826304e-02	0.0	6.633000e-02	-3.667657e-02	0.0	5.869000e-02	-3.501058e-02	0.0	5.149000e-02	-3.326708e-02	0.0	4.474000e-02	-3.144844e-02	0.0	3.844000e-02	-2.955433e-02	0.0	3.260000e-02	-2.758711e-02	0.0	2.723000e-02	-2.554977e-02	0.0	2.232000e-02	-2.343708e-02	0.0	1.790000e-02	-2.126113e-02	0.0	1.395000e-02	-1.901092e-02	0.0	1.049000e-02	-1.669561e-02	0.0	7.520000e-03	-1.431461e-02	0.0	5.040000e-03	-1.186637e-02	0.0	3.050000e-03	-9.347302e-03	0.0	1.560000e-03	-6.769269e-03	0.0	5.600000e-04	-4.108233e-03	0.0	6.000000e-05	-1.363608e-03	0.0	0.000000e+00	0.000000e+00	0.0	6.000000e-05	1.350236e-03	0.0	5.600000e-04	4.050826e-03	0.0	1.560000e-03	6.663226e-03	0.0	3.050000e-03	9.195473e-03	0.0	5.040000e-03	1.167583e-02	0.0	7.520000e-03	1.409653e-02	0.0	1.049000e-02	1.646478e-02	0.0	1.395000e-02	1.878581e-02	0.0	1.790000e-02	2.106403e-02	0.0	2.232000e-02	2.329392e-02	0.0	2.723000e-02	2.549065e-02	0.0	3.260000e-02	2.764558e-02	0.0	3.844000e-02	2.976800e-02	0.0	4.474000e-02	3.185849e-02	0.0	5.149000e-02	3.391797e-02	0.0	5.869000e-02	3.595015e-02	0.0	6.633000e-02	3.795531e-02	0.0	7.440000e-02	3.993367e-02	0.0	8.290000e-02	4.188739e-02	0.0	9.181000e-02	4.381361e-02	0.0	1.011300e-01	4.571359e-02	0.0	1.108500e-01	4.758588e-02	0.0	1.209500e-01	4.942683e-02	0.0	1.314400e-01	5.123782e-02	0.0	1.422900e-01	5.301272e-02	0.0	1.534900e-01	5.474871e-02	0.0	1.650400e-01	5.644398e-02	0.0	1.769300e-01	5.809472e-02	0.0	1.891400e-01	5.969553e-02	0.0	2.016600e-01	6.124223e-02	0.0	2.144700e-01	6.272926e-02	0.0	2.275700e-01	6.415328e-02	0.0	2.409400e-01	6.550849e-02	0.0	2.545700e-01	6.679020e-02	0.0	2.684500e-01	6.799357e-02	0.0	2.825500e-01	6.911218e-02	0.0	2.968700e-01	7.014214e-02	0.0	3.114000e-01	7.107860e-02	0.0	3.261100e-01	7.191555e-02	0.0	3.409900e-01	7.264840e-02	0.0	3.560400e-01	7.327286e-02	0.0	3.712300e-01	7.378330e-02	0.0	3.865400e-01	7.417483e-02	0.0	4.019700e-01	7.444303e-02	0.0	4.175000e-01	7.458295e-02	0.0	4.331100e-01	7.458992e-02	0.0	4.487800e-01	7.445955e-02	0.0	4.645100e-01	7.418745e-02	0.0	4.802700e-01	7.376991e-02	0.0	4.960500e-01	7.320341e-02	0.0	5.118400e-01	7.248482e-02	0.0	5.276100e-01	7.161270e-02	0.0	5.433600e-01	7.058503e-02	0.0	5.590600e-01	6.940265e-02	0.0	5.747100e-01	6.806549e-02	0.0	5.902800e-01	6.657731e-02	0.0	6.057600e-01	6.494175e-02	0.0	6.211300e-01	6.316504e-02	0.0	6.363800e-01	6.125402e-02	0.0	6.515000e-01	5.921698e-02	0.0	6.664700e-01	5.706516e-02	0.0	6.812700e-01	5.481151e-02	0.0	6.958900e-01	5.246892e-02	0.0	7.103200e-01	5.005129e-02	0.0	7.245300e-01	4.757686e-02	0.0	7.385200e-01	4.505941e-02	0.0	7.522800e-01	4.251466e-02	0.0	7.657800e-01	3.996213e-02	0.0	7.790100e-01	3.741749e-02	0.0	7.919700e-01	3.489399e-02	0.0	8.046400e-01	3.240819e-02	0.0	8.170100e-01	2.997405e-02	0.0	8.290500e-01	2.760884e-02	0.0	8.407700e-01	2.532127e-02	0.0	8.521600e-01	2.312328e-02	0.0	8.631800e-01	2.103157e-02	0.0	8.738500e-01	1.905016e-02	0.0	8.841500e-01	1.718895e-02	0.0	8.940600e-01	1.545535e-02	0.0	9.035800e-01	1.385019e-02	0.0	9.127000e-01	1.237271e-02	0.0	9.214000e-01	1.102010e-02	0.0	9.296900e-01	9.781662e-03	0.0	9.375400e-01	8.650401e-03	0.0	9.449600e-01	7.612208e-03	0.0	9.519400e-01	6.656126e-03	0.0	9.584700e-01	5.772587e-03	0.0	9.645400e-01	4.954359e-03	0.0	9.701500e-01	4.195689e-03	0.0	9.752800e-01	3.496291e-03	0.0	9.799500e-01	2.852720e-03	0.0	9.841300e-01	2.270023e-03	0.0	9.878400e-01	1.747228e-03	0.0	9.910500e-01	1.290667e-03	0.0	9.937800e-01	8.994899e-04	0.0	9.960200e-01	5.767420e-04	0.0	9.977600e-01	3.250644e-04	0.0	9.990000e-01	1.452495e-04	0.0	9.997500e-01	3.632890e-05	0.0	1.000000e+00	0.000000e+00	0.0	1.984229e+01	2.506660e+00	0.0	1.937166e+01	4.973800e+00	0.0	1.859553e+01	7.362490e+00	0.0	1.752613e+01	9.635070e+00	0.0	1.618034e+01	1.175571e+01	0.0	1.457937e+01	1.369094e+01	0.0	1.274848e+01	1.541027e+01	0.0	1.071654e+01	1.688656e+01	0.0	8.515590e+00	1.809654e+01	0.0	6.180340e+00	1.902113e+01	0.0	3.747630e+00	1.964575e+01	0.0	1.255810e+00	1.996053e+01	0.0	-1.255810e+00	1.996053e+01	0.0	-3.747630e+00	1.964574e+01	0.0	-6.180340e+00	1.902113e+01	0.0	-8.515590e+00	1.809654e+01	0.0	-1.071654e+01	1.688656e+01	0.0	-1.274848e+01	1.541026e+01	0.0	-1.457937e+01	1.369094e+01	0.0	-1.618034e+01	1.175570e+01	0.0	-1.752613e+01	9.635070e+00	0.0	-1.859553e+01	7.362490e+00	0.0	-1.937166e+01	4.973800e+00	0.0	-1.984229e+01	2.506660e+00	0.0	-2.000000e+01	0.000000e+00	0.0	-1.984229e+01	-2.506670e+00	0.0	-1.937166e+01	-4.973800e+00	0.0	-1.859553e+01	-7.362490e+00	0.0	-1.752613e+01	-9.635080e+00	0.0	-1.618034e+01	-1.175571e+01	0.0	-1.457937e+01	-1.369094e+01	0.0	-1.274848e+01	-1.541027e+01	0.0	-1.071653e+01	-1.688656e+01	0.0	-8.515580e+00	-1.809654e+01	0.0	-6.180340e+00	-1.902113e+01	0.0	-3.747620e+00	-1.964575e+01	0.0	-1.255810e+00	-1.996053e+01	0.0	1.255810e+00	-1.996053e+01	0.0	3.747630e+00	-1.964574e+01	0.0	6.180340e+00	-1.902113e+01	0.0	8.515590e+00	-1.809654e+01	0.0	1.071654e+01	-1.688656e+01	0.0	1.274848e+01	-1.541026e+01	0.0	1.457937e+01	-1.369094e+01	0.0	1.618034e+01	-1.175570e+01	0.0	1.752614e+01	-9.635070e+00	0.0	1.859553e+01	-7.362490e+00	0.0	1.937166e+01	-4.973790e+00	0.0	1.984229e+01	-2.506660e+00	0.0	2.000000e+01	0.000000e+00	0.0	6.093892e-02	-4.285144e-02	0.0	6.600410e-01	-5.844939e-02	0.0	4.255297e-01	8.863687e-02	0.0	6.904536e-01	6.677179e-02	0.0	3.791252e-01	-6.656260e-02	0.0	9.994589e-01	-7.258723e-04	0.0	9.985402e-01	-1.320872e-03	0.0	7.738251e-01	-4.634860e-02	0.0	6.897588e-01	-5.606349e-02	0.0	-1.367138e-03	6.233161e-03	0.0	7.467650e-01	-4.997311e-02	0.0	5.838090e-01	8.122916e-02	0.0	9.927651e-01	-3.598793e-03	0.0	9.898616e-01	-4.480982e-03	0.0	5.994275e-01	7.958836e-02	0.0	7.187102e-01	-5.322760e-02	0.0	-1.548094e-03	7.305687e-04	0.0	9.864673e-01	-5.441292e-03	0.0	9.825916e-01	-6.470515e-03	0.0	-1.358171e-03	-6.336027e-03	0.0	6.449375e-01	-5.947833e-02	0.0	8.244939e-01	-3.842106e-02	0.0	7.997632e-01	-4.246746e-02	0.0	3.482204e-01	8.660152e-02	0.0	8.478910e-01	-3.434813e-02	0.0	2.468390e-01	7.862192e-02	0.0	8.698983e-01	-3.032503e-02	0.0	1.001408e-02	2.079824e-02	0.0	8.904116e-01	-2.642047e-02	0.0	7.722818e-02	-4.682321e-02	0.0	9.093595e-01	-2.267674e-02	0.0	-1.865007e-03	-3.138557e-03	0.0	9.422484e-01	-1.580904e-02	0.0	9.266631e-01	-1.912583e-02	0.0	1.806769e-02	-2.637803e-02	0.0	4.256782e-01	-6.623083e-02	0.0	8.590773e-01	-3.232303e-02	0.0	9.560748e-01	-1.276843e-02	0.0	9.782290e-01	-7.589010e-03	0.0	9.680882e-01	-1.002215e-02	0.0	1.584746e-01	-5.900398e-02	0.0	9.000881e-01	-2.452666e-02	0.0	7.604299e-01	-4.820093e-02	0.0	9.971132e-01	-2.058079e-03	0.0	5.988429e-01	-6.197001e-02	0.0	4.413590e-01	-6.604490e-02	0.0	5.361230e-01	-6.418097e-02	0.0	4.728882e-01	-6.557080e-02	0.0	5.045102e-01	-6.495629e-02	0.0	4.886866e-01	-6.528085e-02	0.0	1.251652e-01	-5.514410e-02	0.0	2.799454e-02	-3.148915e-02	0.0	3.945492e-01	-6.649285e-02	0.0	4.640172e-02	-3.855324e-02	0.0	4.100682e-01	-6.638196e-02	0.0	3.187978e-01	-6.636792e-02	0.0	3.486567e-01	-6.657206e-02	0.0	3.367005e-02	-3.391128e-02	0.0	2.896281e-01	-6.592628e-02	0.0	9.346743e-01	-1.743395e-02	0.0	1.470184e-01	-5.780948e-02	0.0	1.948400e-01	-6.200962e-02	0.0	8.600599e-02	-4.867547e-02	0.0	1.048018e-01	-5.210645e-02	0.0	5.676108e-01	-6.321237e-02	0.0	1.702734e-01	-6.010386e-02	0.0	6.143295e-01	-6.122907e-02	0.0	8.803501e-01	-2.835590e-02	0.0	2.280418e-02	-2.897635e-02	0.0	9.951875e-01	-2.803889e-03	0.0	6.796488e-03	-1.820110e-02	0.0	1.798544e-02	2.626178e-02	0.0	9.182203e-01	-2.087471e-02	0.0	9.49388
[...]
POINT_DATA 5233

SCALARS Conservative_1 float 1
LOOKUP_TABLE default
1.225480e-02	5.471782e-03	4.311107e-03	3.440890e-03	2.892780e-03	2.481740e-03	2.161848e-03	1.908899e-03	1.708962e-03	1.550901e-03	1.427432e-03	1.332773e-03	1.262472e-03	1.212484e-03	1.179697e-03	1.159836e-03	1.151830e-03	1.148812e-03	1.151241e-03	1.158972e-03	1.176079e-03	1.197811e-03	1.227288e-03	1.266405e-03	1.312945e-03	1.369322e-03	1.430545e-03	1.498182e-03	1.566981e-03	1.635567e-03	1.701617e-03	1.758035e-03	1.807431e-03	1.840014e-03	1.861740e-03	1.865416e-03	1.857234e-03	1.832043e-03	1.797026e-03	1.748110e-03	1.693589e-03	1.630151e-03	1.565293e-03	1.496188e-03	1.429087e-03	1.361442e-03	1.298182e-03	1.237361e-03	1.181850e-03	1.130702e-03	1.084931e-03	1.043850e-03	1.007379e-03	9.763067e-04	9.485417e-04	9.257900e-04	9.052700e-04	8.884803e-04	8.726189e-04	8.591045e-04	8.452579e-04	8.323107e-04	8.176148e-04	8.027997e-04	7.848102e-04	7.653008e-04	7.414894e-04	7.147923e-04	6.829965e-04	6.469152e-04	6.051388e-04	5.573639e-04	5.034350e-04	4.421775e-04	3.737888e-04	2.973131e-04	2.118296e-04	1.175966e-04	1.307071e-05	-1.017154e-04	-2.284892e-04	-3.674772e-04	-5.202021e-04	-6.873689e-04	-8.710724e-04	-1.071659e-03	-1.292012e-03	-1.532118e-03	-1.793986e-03	-2.076558e-03	-2.378264e-03	-2.686119e-03	-2.998008e-03	-3.304350e-03	-3.448948e-03	-3.280411e-03	-3.019275e-03	-2.741658e-03	-2.245219e-03	-1.762097e-03	-1.335717e-03	-2.945716e-04	9.158058e-04	1.298873e-03	2.932697e-03	7.155572e-03	1.084188e-02	1.151914e-02	1.035845e-02	9.098924e-03	8.130060e-03	7.292458e-03	6.531460e-03	5.851323e-03	5.257474e-03	4.745937e-03	4.304731e-03	3.929475e-03	3.603669e-03	3.320233e-03	3.073026e-03	2.847390e-03	2.646806e-03	2.464171e-03	2.301780e-03	2.160661e-03	2.034154e-03	1.920959e-03	1.824046e-03	1.737241e-03	1.664365e-03	1.595415e-03	1.529870e-03	1.466246e-03	1.410801e-03	1.377614e-03	1.374095e-03	1.419269e-03	1.528614e-03	1.706191e-03	1.885525e-03	1.992247e-03	1.994099e-03	1.940771e-03	1.871176e-03	1.799378e-03	1.720638e-03	1.628366e-03	1.522339e-03	1.402476e-03	1.276231e-03	1.140703e-03	1.002398e-03	8.571183e-04	7.050494e-04	5.510721e-04	3.897805e-04	2.300173e-04	6.923311e-05	-9.232198e-05	-2.501078e-04	-4.088138e-04	-5.611531e-04	-7.133639e-04	-8.578119e-04	-1.001170e-03	-1.136136e-03	-1.269395e-03	-1.394047e-03	-1.516956e-03	-1.631710e-03	-1.745500e-03	-1.851044e-03	-1.956098e-03	-2.056589e-03	-2.153473e-03	-2.248115e-03	-2.340029e-03	-2.434804e-03	-2.530300e-03	-2.633121e-03	-2.735791e-03	-2.838786e-03	-2.943194e-03	-3.058701e-03	-3.185559e-03	-3.328923e-03	-3.489679e-03	-3.672357e-03	-3.880035e-03	-4.118271e-03	-4.392842e-03	-4.712498e-03	-5.087490e-03	-5.534148e-03	-6.074336e-03	-6.863887e-03	-7.616654e-03	-1.320673e-02	-8.796454e-04	-7.204632e-06	-6.820001e-06	-6.319509e-06	-5.816933e-06	-5.147874e-06	-4.419543e-06	-3.513022e-06	-2.502383e-06	-1.419571e-06	-1.359780e-07	1.660698e-06	3.799272e-06	6.241703e-06	8.489212e-06	9.886942e-06	1.105841e-05	1.140371e-05	1.131565e-05	1.085562e-05	1.018346e-05	9.484993e-06	7.910462e-06	8.061532e-06	1.314233e-05	9.187976e-06	7.321400e-06	8.051378e-06	6.241480e-06	-7.445972e-07	-1.310107e-06	-1.927052e-06	-2.744088e-06	-3.248483e-06	-3.829111e-06	-4.505167e-06	-5.092300e-06	-5.102197e-06	-5.537376e-06	-5.150216e-06	-5.840706e-06	-6.909320e-06	-7.532324e-06	-7.967465e-06	-8.209093e-06	-8.305816e-06	-8.321045e-06	-8.243749e-06	-8.052374e-06	-7.766587e-06	-7.537795e-06	-7.208519e-04	1.560973e-03	2.015532e-03	-3.273833e-04	7.754153e-04	9.219306e-03	6.268068e-03	1.542210e-03	1.624891e-03	-2.610896e-04	1.614386e-03	8.112399e-04	2.862051e-03	2.409754e-03	6.515224e-04	1.644164e-03	-1.659845e-03	2.077982e-03	1.827743e-03	-2.818140e-03	1.516550e-03	1.333763e-03	1.441555e-03	2.097433e-03	1.238060e-03	1.864340e-03	1.167501e-03	9.416552e-03	1.130426e-03	-4.212912e-04	1.123958e-03	-2.487901e-03	1.147104e-03	1.124241e-03	-2.257698e-03	8.390724e-04	1.198638e-03	1.220412e-03	1.634821e-03	1.370830e-03	3.395229e-04	1.124439e-03	1.583993e-03	4.493343e-03	1.349926e-03	8.668796e-04	1.118035e-03	9.337076e-04	1.018004e-03	9.739281e-04	1.233602e-04	-1.737958e-03	7.937672e-04	-1.078414e-03	8.153084e-04	7.142212e-04	7.432976e-04	-1.500741e-03	6.831981e-04	1.131452e-03	2.754961e-04	4.925694e-04	-2.907983e-04	-6.363023e-05	1.230904e-03	3.969798e-04	1.409212e-03	1.144218e-03	-1.990723e-03	3.507697e-03	-3.060913e-03	8.554402e-03	1.123807e-03	1.175852e-03	1.485482e-03	3.572262e-04	1.282712e-03	6.224755e-04	1.173585e-03	1.635893e-03	1.494600e-03	3.461942e-05	5.663105e-04	1.290836e-03	1.598677e-03	-8.921642e-04	-3.270249e-03	-2.530621e-03	7.583775e-04	4.477245e-04	1.303276e-02	5.966169e-04	-1.717354e-04	6.988514e-04	6.456694e-04	8.981460e-04	1.641324e-03	-1.192495e-03	-3.047680e-03	1.265384e-03	-2.013298e-03	7.104330e-03	4.913841e-03	5.900504e-03	2.965822e-03	2.071302e-03	-7.124278e-03	1.404369e-03	1.770628e-03	-3.759322e-03	-3.384633e-03	-2.331528e-03	1.659127e-03	1.948139e-03	2.137065e-03	-2.758371e-03	-2.550374e-03	3.856240e-03	-3.990854e-03	-3.230468e-03	-2.972237e-03	3.360564e-03	4.509631e-03	1.765462e-03	1.815351e-03	2.284378e-03	1.883894e-03	1.867664e-03	2.112461e-03	2.509295e-03	2.796568e-03	3.229284e-04	2.107639e-03	1.974785e-03	-5.630871e-06	9.692177e-04	-9.293224e-04	-6.368055e-04	-1.457199e-03	-1.202979e-03	-1.915268e-03	-1.694543e-03	-2.439640e-03	-2.125029e-03	-3.094627e-03	-2.657276e-03	-3.559220e-03	-2.021630e-03	-2.228018e-03	-1.576932e-03	-1.805953e-03	-1.067727e-03	-1.331548e-03	-4.830574e-04	-7.844432e-04	1.587576e-04	-1.668541e-04	1.120277e-03	4.876283e-04	2.036071e-03	1.918436e-03	2.390247e-03	2.189772e-03	5.376784e-03	2.644282e-03	9.461162e-03	6.481584e-03	5.321021e-04	2.796497e-03	1.283912e-03	1.386770e-03	7.283908e-04	1.066340e-03	6.015638e-04	7.762119e-03	6.842180e-03	3.592824e-03	4.159504e-03	1.777100e-03	3.153280e-03	-4.262783e-03	-4.586273e-03	1.796058e-03	-4.983727e-03	-5.488139e-03	2.004524e-03	2.133017e-03	-2.862760e-03	-1.510328e-02	-8.759831e-03	-1.132247e-02	1.464408e-03	-1.281054e-03	-6.161570e-03	1.535071e-03	-3.262377e-03	-2.798310e-03	-5.644178e-04	2.034921e-04	6.652477e-04	4.089986e-03	-5.069328e-04	-1.194038e-03	5.484258e-04	1.421592e-03	1.041411e-03	-2.831870e-03	1.055655e-03	1.403913e-03	1.341879e-03	2.251655e-03	5.999105e-04	1.114573e-03	1.182819e-03	-3.526010e-04	-2.820038e-03	4.187926e-04	-2.382871e-03	1.205623e-03	1.774437e-04	1.433387e-03	1.340203e-03	7.603890e-04	-4.741938e-04	6.661614e-04	1.044955e-03	1.303657e-03	6.145002e-03	7.243486e-03	5.885812e-05	-1.760421e-03	3.264121e-03	-1.032228e-04	2.627409e-03	-2.086869e-03	-4.772993e-03	2.323293e-03	1.642603e-03	-3.086402e-03	-2.191931e-03	-5.248007e-03	-3.233384e-03	-4.078343e-03	2.221978e-03	2.313052e-03	2.270510e-03	3.437251e-03	1.374094e-03	3.810958e-04	7.743394e-03	2.840668e-03	5.040397e-03	-3.592592e-03	-5.855983e-03	-2.295321e-03	2.370048e-04	-6.217651e-03	-7.624649e-03	-6.688854e-03	2.983292e-03	-9.585417e-05	-3.033609e-03	-2.227406e-03	-1.889438e-03	-2.143507e-03	3.025912e-03	-7.524757e-04	4.879574e-03	3.199945e-03	2.205421e-03	9.968942e-04	1.946382e-03	1.068098e-03	8.903611e-04	2.652735e-03	-2.582953e-03	7.324659e-04	2.240965e-03	1.145276e-03	2.150039e-03	1.087701e-03	1.053871e-03	-6.074462e-04	1.041086e-03	1.047842e-03	1.102926e-03	-1.682188e-03	1.145279e-03	1.286890e-03	1.714919e-03	3.485058e-05	1.401287e-03	1.375824e-03	3.970590e-03	7.910603e-04	8.251563e-04	8.637072e-04	-1.908287e-03	6.854419e-04	7.083938e-04	6.150154e-04	-1.268799e-03	1.056895e-03	1.074590e-03	1.097701e-04	-2.413261e-04	1.047754e-03	1.200908e-03	1.394346e-03	1.533522e-03	1.431188e-03	1.422852e-03	-1.404953e-04	-4.783559e-05	1.097732e-03	1.151056e-03	-1.083367e-03	-9.108633e-04	-2.615663e-03	6.314471e-04	6.476919e-04	2.911911e-04	3.388480e-04	4.511534e-04	4.805308e-04	5.670413e-04	5.833537e-04	5.057653e-04	-1.651567e-03	-3.135075e-03	5.435085e-03	-4.389620e-03	1.507328e-03	1.774060e-03	1.892408e-03	1.996916e-03	-3.814878e-03	-3.401048e-03	-2.620065e-03	2.081885e-03	2.152295e-03	2.260146e-03	-2.510588e-03	-2.954293e-03	4.367269e-03	4.683077e-03	2.179603e-03	2.153105e-03	2.727725e-03	2.966387e-03	3.107075e-03	-1.276254e-03	-7.250918e-04	-5.773209e-04	-1.147506e-03	-1.645977e-03	-2.401877e-03	-1.981273e-03	-1.871606e-03	-1.525388e-03	-1.404957e-03	-1.010587e-03	-8.719438e-04	-4.219586e-04	-2.658166e-04	2.259950e-04	3.918498e-04	1.212140e-03	1.363467e-03	5.601772e-04	7.269963e-04	2.325453e-03	2.388891e-03	2.458821e-03	2.539324e-03	7.725799e-03	5.863522e-03	6.314665e-03	1.263844e-03	1.221539e-03	9.050290e-04	9.504625e-04	5.587890e-04	6.775083e-03	3.630624e-03	3.845856e-03	2.249819e-03	2.186306e-03	2.272939e-03	2.301216e-03	-2.836522e-03	-2.725309e-03	1.252014e-03	1.296796e-03	-1.468243e-03	-3.034874e-03	5.289760e-04	-2.609742e-03	5.690513e-04	4.394000e-04	1.162847e-03	8.463584e-04	9.481983e-04	-4.682754e-03	-4.336323e-03	-3.196313e-03	8.071855e-04	-5.055918e-03	-9.431692e-03	-8.827679e-03	3.475130e-03	-1.654282e-03	-2.030435e-03	-1.787042e-03	-4.126906e-04	9.608108e-04	2.155158e-03	1.243989e-03	6.696994e-03	-2.802474e-03	1.242923e-03	-2.955877e-03	1.246389e-03	-2.238968e-03	9.727449e-04	-2.632791e-03	4.955679e-04	9.917854e-04	1.228265e-03	2.451417e-03	-2.445080e-03	-3.785875e-03	1.688051e-03	-2.906189e-03	2.446606e-04	-5.554202e-03	1.828154e-03	2.476997e-03	2.519419e-03	2.935325e-03	4.289718e-03	-9.476206e-03	-2.811095e-03	-7.398953e-04	6.337610e-03	-1.291239e-03	1.163605e-03	-5.244272e-04	-2.034299e-03	8.056856e-05	6.673834e-04	-1.821181e-03	5.065007e-03	-1.598204e-03	-1.108191e-03	7.910642e-05	-4.041805e-03	-3.044017e-03	-2.132046e-03	-2.029115e-03	2.566179e-03	2.516554e-03	2.515013e-03	3.534219e-03	1.180419e-03	1.208859e-03	2.730773e-04	6.164104e-03	3.031703e-03	-3.561715e-03	-6.253801e-03	2.888094e-03	-2.164497e-04	-2.936404e-03	-2.353017e-03	-1.620277e-03	5.728109e-03	6.647245e-03	1.251652e-03	1.892095e-03	1.082302e-03	6.396714e-04	2.340456e-03	1.042866e-03	1.014435e-03	9.584090e-04	9.493097e-04	-7.799519e-04	-6.470338e-04	9.424730e-04	9.433593e-04	1.043915e-03	1.095041e-03	1.678599e-03	1.213940e-03	1.194409e-03	2.863898e-03	6.993118e-04	7.310141e-04	5.895484e-04	6.140228e-04	-1.430112e-03	9.796670e-04	1.005897e-03	-5.226721e-05	1.722536e-05	8.905609e-04	9.341074e-04	1.363184e-03	1.504500e-03	1.246505e-03	1.236654e-03	-3.099299e-04	-2.156041e-04	-1.292705e-04	9.802223e-04	1.024163e-03	-1.250490e-03	-1.081306e-03	-9.235568e-04	5.119756e-04	5.309088e-04	5.482616e-04	1.370015e-04	1.874426e-04	2.337072e-04	3.102311e-04	3.408689e-04	4.597103e-04	4.769504e-04	3.707902e-04	5.069459e-03	1.955314e-03	2.068753e-03	-3.368158e-03	2.160573e-03	2.238684e-03	2.298408e-03	2.363625e-03	-2.446256e-03	4.527368e-03	4.790664e-03	2.461613e-03	2.478476e-03	3.138110e-03	3.256217e-03	3.388726e-03	-5.488937e-04	-2.340169e-03	-2.233070e-03	-1.926754e-03	-1.818503e-03	-1.710594e-03	-1.476552e-03	-1.361397e-03	-1.238094e-03	-9.764744e-04	-8.389177e-04	-6.962271e-04	-3.973824e-04	-2.422725e-04	-8.248707e-05	4.103169e-04	1.398644e-03	1.545147e-03	5.786804e-04	7.457234e-04	9.125463e-04	2.569257e-03	2.631561e-03	2.698920e-03	2.772764e-03	2.848727e-03	5.358275e-03	5.649359e-03	1.135192e-03	1.104614e-03	1.071697e-03	7.659394e-04	8.067563e-04	5.932751e-03	6.179871e-03	3.696976e-03	3.874813e-03	4.073132e-03	2.561705e-03	2.374691e-03	2.400934e-03	2.449398e-03	-2.782529e-03	-2.665484e-03	-2.556483e-03	1.068768e-03	1.109130e-03	1.148104e-03	3.956626e-04	4.197576e-04	-2.592196e-03	-4.661824e-04	-5.040434e-03	-3.672365e-03	7.743199e-04	-1.759374e-03	3.673676e-03	8.586793e-04	8.780939e-04	-1.549664e-03	-4.419273e-03	1.933852e-03	-2.742730e-03	4.923651e-03	-2.570867e-03	-2.976228e-03	-4.688795e-03	-7.576386e-04	3.816651e-04	-1.225214e-04	-4.808637e-03	1.571462e-03	1.029478e-03	-6.584250e-06	-1.907524e-03	4.895229e-04	-5.682565e-04	5.633822e-04	3.463806e-04	-3.895414e-03	1.374660e-03	-2.840167e-03	-2.716259e-03	-9.618765e-04	3.185329e-03	2.708907e-03	1.701031e-03	4.412162e-03	8.843486e-04	-6.496248e-03	-4.144417e-03	2.314025e-03	1.170794e-03	-2.088786e-03	1.099639e-03	-2.685800e-03	1.090740e-03	1.109253e-03	-2.264993e-03	1.888060e-03	-2.431174e-03	-1.454059e-03	1.811961e-03	2.727055e-03	-1.291598e-03	4.040660e-03	2.204776e-04	-1.973333e-03	2.638439e-03	2.761962e-03	2.744289e-03	1.064562e-03	1.069747e-03	-3.468794e-03	2.521270e-03	9.265369e-04	-2.770301e-03	-2.433153e-03	-1.722576e-03	1.089802e-03	1.533100e-03	1.204004e-03	9.243412e-04	8.998834e-04	8.678945e-04	8.586966e-04	-8.002655e-04	-6.797179e-04	8.500780e-04	8.484740e-04	8.539806e-04	9.721780e-04	1.023903e-03	1.077949e-03	1.041872e-03	2.064533e-03	5.947372e-04	6.269927e-04	5.100275e-04	5.378722e-04	9.018558e-04	9.313653e-04	-1.316731e-04	-6.999181e-05	8.038104e-04	1.270165e-03	1.391156e-03	1.097335e-03	1.079166e-03	-3.708394e-04	-2.857784e-04	-2.026860e-04	8.543165e-04	8.829831e-04	-1.383477e-03	-1.222887e-03	-1.069172e-03	-9.294194e-04	4.056217e-04	4.263770e-04	4.452671e-04	4.672022e-04	4.366640e-05	9.484972e-05	1.364833e-04	1.776610e-04	2.110369e-04	3.871699e-04	3.659840e-04	2.446322e-04	2.066306e-03	-3.287472e-03	-3.124578e-03	2.165549e-03	2.253136e-03	2.324583e-03	2.379875e-03	2.415330e-03	4.591359e-03	4.765272e-03	2.690672e-03	2.698437e-03	3.281921e-03	3.385172e-03	3.499376e-03	3.624945e-03	-2.270553e-03	-2.169164e-03	-2.068976e-03	-1.873299e-03	-1.771980e-03	-1.665852e-03	-1.559033e-03	-1.333296e-03	-1.210025e-03	-1.099899e-03	-8.353392e-04	-6.898742e-04	-5.539502e-04	-4.015831e-04	-2.564499e-04	-9.758566e-05	5.701915e-05	1.658764e-03	1.515613e-03	5.461779e-04	7.123646e-04	8.783843e-04	1.049942e-03	2.740591e-03	2.798881e-03	2.869724e-03	2.946481e-03	3.019853e-03	3.099637e-03	4.931359e-03	5.086732e-03	9.984082e-04	9.688253e-04	9.469420e-04	6.555871e-04	6.991754e-04	7.272688e-04	5.220133e-03	5.294879e-03	5.247732e-03	3.762056e-03	3.910162e-03	4.074759e-03	4.242660e-03	2.436014e-03	2.457779e-03	2.489380e-03	2.549578e-03	-2.376344e-03	-2.597165e-03	-2.489180e-03	9.339959e-04	9.584442e-04	1.006539e-03	1.023347e-03	2.725542e-04	3.005183e-04	3.229240e-04	-2.090395e-03	-4.539205e-03	9.920250e-04	-7.098509e-03	-2.235706e-03	9.766689e-04	-5.065854e-04	-2.359355e-03	-3.339877e-03	-2.537307e-03	-1.621870e-03	-8.041228e-05	3.371683e-03	3.194937e-03	-4.330382e-05	-1.706010e-03	-2.060468e-03	-2.170716e-03	-2.058692e-03	-2.602687e-03	1.860187e-03	2.681136e-03	1.058794e-03	1.442609e-03	8.048396e-04	9.221975e-04	4.244629e-04	-4.093713e-03	-2.228279e-03	-2.526706e-03	1.522225e-03	1.786304e-03	4.128186e-04	-7.632261e-04	1.994384e-03	6.832614e-04	2.592990e-03	-3.901690e-03	-6.001404e-04	-7.347362e-03	-3.513014e-03	-2.238191e-03	3.907203e-03	4.397896e-03	7.936960e-04	-1.476395e-03	-2.556275e-03	3.944796e-03	-2.450227e-03	-2.761782e-03	-7.127442e-04	-2.884938e-03	-6.213856e-04	-1.941174e-03	3.010803e-04	2.705415e-04	-3.694224e-03	1.295909e-03	-2.642967e-03	1.322126e-03	9.631107e-04	-1.242855e-03	2.804542e-03	2.849755e-03	2.866940e-03	9.336984e-04	2.090516e-03	9.040849e-04	-2.444483e-03	-1.780916e-03	8.250457e-04	8.180991e-04	7.959495e-04	7.913179e-04	-7.032666e-04	-8.118837e-04	7.737233e-04	7.749614e-04	7.711162e-04	7.716877e-04	8.902502e-04	9.364301e-04	9.512709e-04	1.544252e-03	5.095939e-04	5.329864e-04	4.549815e-04	4.733828e-04	8.250036e-04	8.532719e-04	-1.973679e-04	-1.276642e-04	1.137226e-03	1.225738e-03	9.618160e-04	-4.179816e-04	-3.295258e-04	-2.627102e-04	7.534278e-04	-1.330700e-03	-1.186071e-03	-1.051674e-03	-9.284307e-04	3.142178e-04	3.431378e-04	3.563223e-04	3.860780e-04	4.030649e-04	-1.942440e-05	1.717279e-05	6.952660e-05	9.778541e-05	1.423127e-04	-3.178750e-03	-3.029076e-03	-2.891177e-03	2.122056e-03	2.205760e-03	2.298631e-03	2.356852e-03	2.416201e-03	4.387894e-03	4.465631e-03	2.846591e-03	2.824437e-03	3.458182e-03	3.553328e-03	3.670648e-03	-2.117609e-03	-2.030277e-03	-1.929208e-03	-1.844308e-03	-1.736543e-03	-1.642396e-03	-1.529474e-03	-1.373697e-03	-1.193247e-03	-1.015812e-03	-4.874002e-04	-2.003179e-04	1.008947e-04	7.322747e-04	1.047912e-03	2.841337e-03	2.877894e-03	2.945844e-03	3.026282e-03	3.097962e-03	3.185265e-03	3.272663e-03	4.522239e-03	4.567222e-03	8.815741e-04	8.705104e-04	8.484448e-04	5.625570e-04	6.160307e-04	4.583531e-03	4.524098e-03	4.339825e-03	3.789293e-03	3.913282e-03	4.047496e-03	4.170786e-03	4.279595e-03	2.442681e-03	2.475444e-03	2.492120e-03	2.527424e-03	-2.420707e-03	-2.320884e-03	8.222076e-04	8.842731e-04	1.655506e-04	2.047197e-04	2.222568e-04	2.557293e-04	4.529894e-03	-7.378649e-03	-2.156492e-03	-2.015921e-03	1.022271e-03	9.122126e-04	-3.472311e-03	-1.164002e-03	-2.663506e-03	1.780080e-03	1.016195e-03	-2.419131e-03	-1.523164e-03	-2.044828e-03	2.555429e-03	-4.482953e-03	1.688382e-03	-6.457366e-04	-1.922336e-03	8.669269e-04	5.596738e-04	-3.313932e-03	2.257499e-04	7.266543e-04	7.106471e-04	7.393038e-04	-5.329666e-04	-1.072874e-04	-2.388801e-03	3.861449e-04	-7.140118e-04	-6.217298e-04	3.511291e-03	-3.035856e-03	-2.124163e-03	-1.602285e-03	2.525097e-03	8.264677e-04	-6.984785e-03	-3.169667e-03	-2.132520e-03	-2.456740e-03	1.082514e-03	8.474816e-04	1.855173e-03	2.072825e-03	-3.649045e-03	-1.778500e-03	-4.518809e-03	-2.334195e-03	3.954240e-03	-1.398648e-03	-2.291735e-03	-2.232127e-03	1.385622e-03	-1.653714e-03	-2.555345e-03	-2.452804e-03	1.618800e-03	2.723041e-03	2.866432e-03	8.423872e-04	7.982444e-04	1.198135e-06	-1.794391e-03	7.377134e-04	7.170311e-04	-8.155388e-04	7.049103e-04	6.963054e-04	7.919784e-04	1.165146e-03	4.376242e-04	7.413285e-04	7.640829e-04	-2.123888e-04	9.607691e-04	8.370930e-04	8.220563e-04	-4.076397e-04	-3.106363e-04	6.203996e-04	-1.269320e-03	-1.137739e-03	-1.024692e-03	-9.197038e-04	2.706760e-04	3.165724e-04	3.454269e-04	-1.846993e-05	5.723301e-05	-2.905088e-03	-2.781052e-03	2.250298e-03	2.376187e-03	4.137791e-03	2.895566e-03	3.642901e-03	-1.020159e-03	-1.940681e-03	-1.751747e-03	-1.553929e-03	-1.362571e-03	-1.190777e-03	-8.108007e-04	-5.567052e-04	-2.868669e-04	-7.401709e-06	2.837675e-04	5.840442e-04	8.848330e-04	1.156452e-03	2.937099e-03	3.053836e-03	3.182427e-03	3.286259e-03	3.380423e-03	4.102289e-03	4.064956e-03	7.984084e-04	7.821257e-04	7.536458e-04	4.718929e-04	5.060561e-04	3.998967e-03	3.850439e-03	3.577173e-03	3.158129e-03	3.751379e-03	3.854192e-03	3.956655e-03	4.043084e-03	4.093893e-03	4.182888e-03	2.446755e-03	2.481208e-03	-2.368807e-03	-2.257925e-03	6.821056e-04	7.878394e-04	8.229360e-04	1.224662e-04	1.774019e-04	-3.738030e-03	3.457960e-03	3.446126e-03	-4.853717e-03	-1.040497e-03	-3.316873e-03	-3.148154e-03	1.473588e-03	-2.033482e-03	-1.762884e-03	2.056826e-03	1.181061e-03	6.518497e-04	-1.493402e-03	-2.353668e-03	-2.646853e-03	7.423018e-04	2.438192e-03	-4.157725e-03	6.232571e-04	-1.531379e-03	3.829036e-03	1.338222e-03	-1.963555e-03	3.008265e-04	6.399776e-04	6.771327e-04	5.220793e-04	7.161376e-04	7.405292e-04	-1.424769e-03	-1.316001e-03	-5.607372e-03	-2.994712e-03	-3.126088e-03	-2.449482e-03	2.694480e-03	1.213971e-03	7.369255e-04	-8.067375e-04	-6.339790e-03	-6.415559e-03	-2.178985e-03	6.932644e-04	-2.545108e-03	-3.383597e-04	7.731834e-04	-1.073445e-03	-1.864282e-03	4.688481e-04	-2.290778e-03	-7.219631e-04	-6.370345e-04	-2.873285e-03	-1.929564e-03	6.752334e-04	8.060775e-04	7.454733e-04	-2.336577e-03	2.344843e-03	-9.009016e-04	-2.142560e-03	-2.065611e-03	1.663658e-03	-1.650680e-03	-2.359178e-03	1.437158e-03	2.524800e-03	9.722315e-04	-1.371373e-06	-5.793240e-04	6.407651e-04	6.287615e-04	6.237402e-04	6.332987e-04	8.888380e-04	3.459661e-04	6.483127e-04	6.597715e-04	2.658287e-04	6.936869e-04	6.765941e-04	7.325144e-04	-5.393273e-04	-4.321608e-04	-3.440738e-04	-1.194834e-03	1.752232e-04	2.235930e-04	-2.462909e-04	-1.502799e-04	7.136255e-04	-2.757501e-03	1.887075e-03	2.084161e-03	3.552539e-03	-1.919667e-03	-1.732851e-03	-1.019572e-03	-1.539045e-03	-1.352498e-03	-1.181451e-03	-8.425200e-04	-6.277508e-04	-3.835817e-04	-1.261977e-04	1.410426e-04	4.195340e-04	7.026643e-04	2.847403e-03	2.920009e-03	2.991850e-03	3.112100e-03	3.273993e-03	3.427696e-03	3.671446e-03	3.571876e-03	7.156113e-04	6.576903e-04	3.912184e-04	4.261543e-04	3.453585e-03	3.257644e-03	2.943163e-03	2.522537e-03	1.986943e-03	3.644788e-03	3.721869e-03	3.794994e-03	3.839060e-03	3.845