# vtk DataFile Version 3.0
vtk output
ASCII
DATASET UNSTRUCTURED_GRID
POINTS 5233 float
9.997500e-01	-3.632909e-05	0.0	9.990000e-01	-1.452618e-04	0.0	9.977600e-01	-3.252008e-04	0.0	9.960200e-01	-5.774943e-04	0.0	9.937800e-01	-9.022942e-04	0.0	9.910500e-01	-1.298763e-03	0.0	9.878400e-01	-1.766726e-03	0.0	9.841300e-01	-2.311194e-03	0.0	9.799500e-01	-2.930640e-03	0.0	9.752800e-01	-3.631444e-03	0.0	9.701500e-01	-4.412625e-03	0.0	9.645400e-01	-5.280292e-03	0.0	9.584700e-01	-6.233365e-03	0.0	9.519400e-01	-7.272227e-03	0.0	9.449600e-01	-8.393908e-03	0.0	9.375400e-01	-9.593773e-03	0.0	9.296900e-01	-1.086609e-02	0.0	9.214000e-01	-1.220804e-02	0.0	9.127000e-01	-1.361074e-02	0.0	9.035800e-01	-1.507272e-02	0.0	8.940600e-01	-1.658877e-02	0.0	8.841500e-01	-1.815610e-02	0.0	8.738500e-01	-1.977361e-02	0.0	8.631800e-01	-2.143627e-02	0.0	8.521600e-01	-2.313752e-02	0.0	8.407700e-01	-2.487471e-02	0.0	8.290500e-01	-2.663345e-02	0.0	8.170100e-01	-2.840162e-02	0.0	8.046400e-01	-3.016792e-02	0.0	7.919700e-01	-3.191393e-02	0.0	7.790100e-01	-3.362378e-02	0.0	7.657800e-01	-3.528073e-02	0.0	7.522800e-01	-3.687177e-02	0.0	7.385200e-01	-3.838440e-02	0.0	7.245300e-01	-3.980643e-02	0.0	7.103200e-01	-4.113073e-02	0.0	6.958900e-01	-4.235375e-02	0.0	6.812700e-01	-4.347212e-02	0.0	6.664700e-01	-4.448693e-02	0.0	6.515000e-01	-4.540154e-02	0.0	6.363800e-01	-4.622067e-02	0.0	6.211300e-01	-4.695082e-02	0.0	6.057600e-01	-4.760016e-02	0.0	5.902800e-01	-4.817747e-02	0.0	5.747100e-01	-4.869148e-02	0.0	5.590600e-01	-4.915119e-02	0.0	5.433600e-01	-4.956464e-02	0.0	5.276100e-01	-4.993996e-02	0.0	5.118400e-01	-5.028359e-02	0.0	4.960500e-01	-5.060149e-02	0.0	4.802700e-01	-5.089775e-02	0.0	4.645100e-01	-5.117554e-02	0.0	4.487800e-01	-5.143670e-02	0.0	4.331100e-01	-5.168146e-02	0.0	4.175000e-01	-5.190932e-02	0.0	4.019700e-01	-5.211839e-02	0.0	3.865400e-01	-5.230586e-02	0.0	3.712300e-01	-5.246816e-02	0.0	3.560400e-01	-5.260130e-02	0.0	3.409900e-01	-5.270061e-02	0.0	3.261100e-01	-5.276113e-02	0.0	3.114000e-01	-5.277790e-02	0.0	2.968700e-01	-5.274582e-02	0.0	2.825500e-01	-5.265996e-02	0.0	2.684500e-01	-5.251559e-02	0.0	2.545700e-01	-5.230801e-02	0.0	2.409400e-01	-5.203324e-02	0.0	2.275700e-01	-5.168749e-02	0.0	2.144700e-01	-5.126729e-02	0.0	2.016600e-01	-5.076993e-02	0.0	1.891400e-01	-5.019238e-02	0.0	1.769300e-01	-4.953284e-02	0.0	1.650400e-01	-4.878952e-02	0.0	1.534900e-01	-4.796177e-02	0.0	1.422900e-01	-4.704883e-02	0.0	1.314400e-01	-4.604934e-02	0.0	1.209500e-01	-4.496296e-02	0.0	1.108500e-01	-4.379208e-02	0.0	1.011300e-01	-4.253503e-02	0.0	9.181000e-02	-4.119389e-02	0.0	8.290000e-02	-3.976997e-02	0.0	7.440000e-02	-3.826304e-02	0.0	6.633000e-02	-3.667657e-02	0.0	5.869000e-02	-3.501058e-02	0.0	5.149000e-02	-3.326708e-02	0.0	4.474000e-02	-3.144844e-02	0.0	3.844000e-02	-2.955433e-02	0.0	3.260000e-02	-2.758711e-02	0.0	2.723000e-02	-2.554977e-02	0.0	2.232000e-02	-2.343708e-02	0.0	1.790000e-02	-2.126113e-02	0.0	1.395000e-02	-1.901092e-02	0.0	1.049000e-02	-1.669561e-02	0.0	7.520000e-03	-1.431461e-02	0.0	5.040000e-03	-1.186637e-02	0.0	3.050000e-03	-9.347302e-03	0.0	1.560000e-03	-6.769269e-03	0.0	5.600000e-04	-4.108233e-03	0.0	6.000000e-05	-1.363608e-03	0.0	0.000000e+00	0.000000e+00	0.0	6.000000e-05	1.350236e-03	0.0	5.600000e-04	4.050826e-03	0.0	1.560000e-03	6.663226e-03	0.0	3.050000e-03	9.195473e-03	0.0	5.040000e-03	1.167583e-02	0.0	7.520000e-03	1.409653e-02	0.0	1.049000e-02	1.646478e-02	0.0	1.395000e-02	1.878581e-02	0.0	1.790000e-02	2.106403e-02	0.0	2.232000e-02	2.329392e-02	0.0	2.723000e-02	2.549065e-02	0.0	3.260000e-02	2.764558e-02	0.0	3.844000e-02	2.976800e-02	0.0	4.474000e-02	3.185849e-02	0.0	5.149000e-02	3.391797e-02	0.0	5.869000e-02	3.595015e-02	0.0	6.633000e-02	3.795531e-02	0.0	7.440000e-02	3.993367e-02	0.0	8.290000e-02	4.188739e-02	0.0	9.181000e-02	4.381361e-02	0.0	1.011300e-01	4.571359e-02	0.0	1.108500e-01	4.758588e-02	0.0	1.209500e-01	4.942683e-02	0.0	1.314400e-01	5.123782e-02	0.0	1.422900e-01	5.301272e-02	0.0	1.534900e-01	5.474871e-02	0.0	1.650400e-01	5.644398e-02	0.0	1.769300e-01	5.809472e-02	0.0	1.891400e-01	5.969553e-02	0.0	2.016600e-01	6.124223e-02	0.0	2.144700e-01	6.272926e-02	0.0	2.275700e-01	6.415328e-02	0.0	2.409400e-01	6.550849e-02	0.0	2.545700e-01	6.679020e-02	0.0	2.684500e-01	6.799357e-02	0.0	2.825500e-01	6.911218e-02	0.0	2.968700e-01	7.014214e-02	0.0	3.114000e-01	7.107860e-02	0.0	3.261100e-01	7.191555e-02	0.0	3.409900e-01	7.264840e-02	0.0	3.560400e-01	7.327286e-02	0.0	3.712300e-01	7.378330e-02	0.0	3.865400e-01	7.417483e-02	0.0	4.019700e-01	7.444303e-02	0.0	4.175000e-01	7.458295e-02	0.0	4.331100e-01	7.458992e-02	0.0	4.487800e-01	7.445955e-02	0.0	4.645100e-01	7.418745e-02	0.0	4.802700e-01	7.376991e-02	0.0	4.960500e-01	7.320341e-02	0.0	5.118400e-01	7.248482e-02	0.0	5.276100e-01	7.161270e-02	0.0	5.433600e-01	7.058503e-02	0.0	5.590600e-01	6.940265e-02	0.0	5.747100e-01	6.806549e-02	0.0	5.902800e-01	6.657731e-02	0.0	6.057600e-01	6.494175e-02	0.0	6.211300e-01	6.316504e-02	0.0	6.363800e-01	6.125402e-02	0.0	6.515000e-01	5.921698e-02	0.0	6.664700e-01	5.706516e-02	0.0	6.812700e-01	5.481151e-02	0.0	6.958900e-01	5.246892e-02	0.0	7.103200e-01	5.005129e-02	0.0	7.245300e-01	4.757686e-02	0.0	7.385200e-01	4.505941e-02	0.0	7.522800e-01	4.251466e-02	0.0	7.657800e-01	3.996213e-02	0.0	7.790100e-01	3.741749e-02	0.0	7.919700e-01	3.489399e-02	0.0	8.046400e-01	3.240819e-02	0.0	8.170100e-01	2.997405e-02	0.0	8.290500e-01	2.760884e-02	0.0	8.407700e-01	2.532127e-02	0.0	8.521600e-01	2.312328e-02	0.0	8.631800e-01	2.103157e-02	0.0	8.738500e-01	1.905016e-02	0.0	8.841500e-01	1.718895e-02	0.0	8.940600e-01	1.545535e-02	0.0	9.035800e-01	1.385019e-02	0.0	9.127000e-01	1.237271e-02	0.0	9.214000e-01	1.102010e-02	0.0	9.296900e-01	9.781662e-03	0.0	9.375400e-01	8.650401e-03	0.0	9.449600e-01	7.612208e-03	0.0	9.519400e-01	6.656126e-03	0.0	9.584700e-01	5.772587e-03	0.0	9.645400e-01	4.954359e-03	0.0	9.701500e-01	4.195689e-03	0.0	9.752800e-01	3.496291e-03	0.0	9.799500e-01	2.852720e-03	0.0	9.841300e-01	2.270023e-03	0.0	9.878400e-01	1.747228e-03	0.0	9.910500e-01	1.290667e-03	0.0	9.937800e-01	8.994899e-04	0.0	9.960200e-01	5.767420e-04	0.0	9.977600e-01	3.250644e-04	0.0	9.990000e-01	1.452495e-04	0.0	9.997500e-01	3.632890e-05	0.0	1.000000e+00	0.000000e+00	0.0	1.984229e+01	2.506660e+00	0.0	1.937166e+01	4.973800e+00	0.0	1.859553e+01	7.362490e+00	0.0	1.752613e+01	9.635070e+00	0.0	1.618034e+01	1.175571e+01	0.0	1.457937e+01	1.369094e+01	0.0	1.274848e+01	1.541027e+01	0.0	1.071654e+01	1.688656e+01	0.0	8.515590e+00	1.809654e+01	0.0	6.180340e+00	1.902113e+01	0.0	3.747630e+00	1.964575e+01	0.0	1.255810e+00	1.996053e+01	0.0	-1.255810e+00	1.996053e+01	0.0	-3.747630e+00	1.964574e+01	0.0	-6.180340e+00	1.902113e+01	0.0	-8.515590e+00	1.809654e+01	0.0	-1.071654e+01	1.688656e+01	0.0	-1.274848e+01	1.541026e+01	0.0	-1.457937e+01	1.369094e+01	0.0	-1.618034e+01	1.175570e+01	0.0	-1.752613e+01	9.635070e+00	0.0	-1.859553e+01	7.362490e+00	0.0	-1.937166e+01	4.973800e+00	0.0	-1.984229e+01	2.506660e+00	0.0	-2.000000e+01	0.000000e+00	0.0	-1.984229e+01	-2.506670e+00	0.0	-1.937166e+01	-4.973800e+00	0.0	-1.859553e+01	-7.362490e+00	0.0	-1.752613e+01	-9.635080e+00	0.0	-1.618034e+01	-1.175571e+01	0.0	-1.457937e+01	-1.369094e+01	0.0	-1.274848e+01	-1.541027e+01	0.0	-1.071653e+01	-1.688656e+01	0.0	-8.515580e+00	-1.809654e+01	0.0	-6.180340e+00	-1.902113e+01	0.0	-3.747620e+00	-1.964575e+01	0.0	-1.255810e+00	-1.996053e+01	0.0	1.255810e+00	-1.996053e+01	0.0	3.747630e+00	-1.964574e+01	0.0	6.180340e+00	-1.902113e+01	0.0	8.515590e+00	-1.809654e+01	0.0	1.071654e+01	-1.688656e+01	0.0	1.274848e+01	-1.541026e+01	0.0	1.457937e+01	-1.369094e+01	0.0	1.618034e+01	-1.175570e+01	0.0	1.752614e+01	-9.635070e+00	0.0	1.859553e+01	-7.362490e+00	0.0	1.937166e+01	-4.973790e+00	0.0	1.984229e+01	-2.506660e+00	0.0	2.000000e+01	0.000000e+00	0.0	6.093892e-02	-4.285144e-02	0.0	6.600410e-01	-5.844939e-02	0.0	4.255297e-01	8.863687e-02	0.0	6.904536e-01	6.677179e-02	0.0	3.791252e-01	-6.656260e-02	0.0	9.994589e-01	-7.258723e-04	0.0	9.985402e-01	-1.320872e-03	0.0	7.738251e-01	-4.634860e-02	0.0	6.897588e-01	-5.606349e-02	0.0	-1.367138e-03	6.233161e-03	0.0	7.467650e-01	-4.997311e-02	0.0	5.838090e-01	8.122916e-02	0.0	9.927651e-01	-3.598793e-03	0.0	9.898616e-01	-4.480982e-03	0.0	5.994275e-01	7.958836e-02	0.0	7.187102e-01	-5.322760e-02	0.0	-1.548094e-03	7.305687e-04	0.0	9.864673e-01	-5.441292e-03	0.0	9.825916e-01	-6.470515e-03	0.0	-1.358171e-03	-6.336027e-03	0.0	6.449375e-01	-5.947833e-02	0.0	8.244939e-01	-3.842106e-02	0.0	7.997632e-01	-4.246746e-02	0.0	3.482204e-01	8.660152e-02	0.0	8.478910e-01	-3.434813e-02	0.0	2.468390e-01	7.862192e-02	0.0	8.698983e-01	-3.032503e-02	0.0	1.001408e-02	2.079824e-02	0.0	8.904116e-01	-2.642047e-02	0.0	7.722818e-02	-4.682321e-02	0.0	9.093595e-01	-2.267674e-02	0.0	-1.865007e-03	-3.138557e-03	0.0	9.422484e-01	-1.580904e-02	0.0	9.266631e-01	-1.912583e-02	0.0	1.806769e-02	-2.637803e-02	0.0	4.256782e-01	-6.623083e-02	0.0	8.590773e-01	-3.232303e-02	0.0	9.560748e-01	-1.276843e-02	0.0	9.782290e-01	-7.589010e-03	0.0	9.680882e-01	-1.002215e-02	0.0	1.584746e-01	-5.900398e-02	0.0	9.000881e-01	-2.452666e-02	0.0	7.604299e-01	-4.820093e-02	0.0	9.971132e-01	-2.058079e-03	0.0	5.988429e-01	-6.197001e-02	0.0	4.413590e-01	-6.604490e-02	0.0	5.361230e-01	-6.418097e-02	0.0	4.728882e-01	-6.557080e-02	0.0	5.045102e-01	-6.495629e-02	0.0	4.886866e-01	-6.528085e-02	0.0	1.251652e-01	-5.514410e-02	0.0	2.799454e-02	-3.148915e-02	0.0	3.945492e-01	-6.649285e-02	0.0	4.640172e-02	-3.855324e-02	0.0	4.100682e-01	-6.638196e-02	0.0	3.187978e-01	-6.636792e-02	0.0	3.486567e-01	-6.657206e-02	0.0	3.367005e-02	-3.391128e-02	0.0	2.896281e-01	-6.592628e-02	0.0	9.346743e-01	-1.743395e-02	0.0	1.470184e-01	-5.780948e-02	0.0	1.948400e-01	-6.200962e-02	0.0	8.600599e-02	-4.867547e-02	0.0	1.048018e-01	-5.210645e-02	0.0	5.676108e-01	-6.321237e-02	0.0	1.702734e-01	-6.010386e-02	0.0	6.143295e-01	-6.122907e-02	0.0	8.803501e-01	-2.835590e-02	0.0	2.280418e-02	-2.897635e-02	0.0	9.951875e-01	-2.803889e-03	0.0	6.796488e-03	-1.820110e-02	0.0	1.798544e-02	2.626178e-02	0.0	9.182203e-01	-2.087471e-02	0.0	9.49388
[...]
POINT_DATA 5233

SCALARS Conservative_1 float 1
LOOKUP_TABLE default
1.446084e-02	6.590491e-03	5.209132e-03	4.187753e-03	3.540162e-03	3.053178e-03	2.673670e-03	2.372306e-03	2.133007e-03	1.942266e-03	1.791662e-03	1.674146e-03	1.584516e-03	1.518044e-03	1.471135e-03	1.439058e-03	1.420484e-03	1.407694e-03	1.400996e-03	1.400425e-03	1.410870e-03	1.427212e-03	1.452255e-03	1.487962e-03	1.531545e-03	1.585895e-03	1.645344e-03	1.712108e-03	1.780021e-03	1.847957e-03	1.913454e-03	1.969009e-03	2.017760e-03	2.048919e-03	2.069192e-03	2.070442e-03	2.059848e-03	2.031578e-03	1.993496e-03	1.940894e-03	1.882924e-03	1.815485e-03	1.746967e-03	1.673897e-03	1.603332e-03	1.532128e-03	1.465763e-03	1.401853e-03	1.343640e-03	1.289946e-03	1.241974e-03	1.198840e-03	1.160529e-03	1.127933e-03	1.098708e-03	1.074857e-03	1.053232e-03	1.035559e-03	1.018796e-03	1.004605e-03	9.900430e-04	9.765047e-04	9.611193e-04	9.456754e-04	9.269763e-04	9.068590e-04	8.822547e-04	8.547719e-04	8.220283e-04	7.849025e-04	7.419810e-04	6.928584e-04	6.375119e-04	5.745576e-04	5.043940e-04	4.259072e-04	3.382207e-04	2.415933e-04	1.344354e-04	1.670949e-05	-1.132351e-04	-2.557128e-04	-4.121652e-04	-5.834794e-04	-7.716405e-04	-9.771647e-04	-1.202814e-03	-1.448803e-03	-1.717010e-03	-2.006625e-03	-2.315848e-03	-2.631304e-03	-2.952733e-03	-3.273084e-03	-3.411246e-03	-3.206043e-03	-2.937016e-03	-2.695732e-03	-2.252830e-03	-1.819827e-03	-1.441337e-03	-4.950744e-04	6.208604e-04	8.379759e-04	2.107183e-03	6.085030e-03	9.903640e-03	1.083495e-02	9.796784e-03	8.547506e-03	7.563987e-03	6.706048e-03	5.917784e-03	5.211780e-03	4.594325e-03	4.066853e-03	3.611658e-03	3.220565e-03	2.883624e-03	2.585676e-03	2.327681e-03	2.093858e-03	1.881012e-03	1.686094e-03	1.509476e-03	1.351926e-03	1.210231e-03	1.079675e-03	9.627748e-04	8.552208e-04	7.621832e-04	6.796461e-04	6.046946e-04	5.349273e-04	4.645579e-04	4.024323e-04	3.549123e-04	3.434001e-04	3.725521e-04	4.674714e-04	6.494742e-04	9.058796e-04	1.142238e-03	1.251809e-03	1.232169e-03	1.158377e-03	1.076750e-03	9.929560e-04	9.030889e-04	7.985279e-04	6.856879e-04	5.621271e-04	4.364460e-04	3.042573e-04	1.655509e-04	2.554410e-05	-1.220501e-04	-2.674718e-04	-4.141566e-04	-5.616696e-04	-7.052273e-04	-8.502056e-04	-9.886812e-04	-1.127956e-03	-1.259443e-03	-1.390969e-03	-1.514173e-03	-1.636864e-03	-1.751181e-03	-1.865065e-03	-1.971123e-03	-2.077546e-03	-2.175940e-03	-2.275224e-03	-2.370695e-03	-2.463683e-03	-2.555740e-03	-2.646190e-03	-2.741357e-03	-2.838541e-03	-2.945738e-03	-3.054291e-03	-3.164687e-03	-3.277485e-03	-3.403303e-03	-3.542054e-03	-3.699255e-03	-3.875593e-03	-4.075904e-03	-4.303651e-03	-4.564925e-03	-4.866418e-03	-5.217770e-03	-5.630741e-03	-6.122927e-03	-6.718902e-03	-7.592128e-03	-8.410306e-03	-1.471283e-02	-6.141931e-04	-9.154440e-06	-8.862048e-06	-8.436097e-06	-7.995774e-06	-7.398065e-06	-6.706221e-06	-5.823069e-06	-4.768132e-06	-3.513851e-06	-2.108333e-06	-2.271578e-07	2.057423e-06	4.677159e-06	7.187670e-06	8.906477e-06	1.026571e-05	1.085803e-05	1.089836e-05	1.052588e-05	1.003118e-05	9.619741e-06	8.100717e-06	8.949678e-06	1.583404e-05	1.079708e-05	9.116671e-06	1.079357e-05	9.006319e-06	6.082355e-07	3.771029e-07	7.943420e-08	-6.353926e-07	-1.083610e-06	-1.687732e-06	-2.430803e-06	-3.224572e-06	-3.634317e-06	-4.463104e-06	-4.690336e-06	-5.707919e-06	-7.018281e-06	-7.914498e-06	-8.617718e-06	-9.103678e-06	-9.425646e-06	-9.627145e-06	-9.711518e-06	-9.664185e-06	-9.498613e-06	-9.390301e-06	-6.202861e-04	1.735521e-03	1.399228e-03	-7.154466e-04	9.088205e-04	1.092383e-02	7.482058e-03	1.735845e-03	1.805472e-03	-4.542910e-04	1.804596e-03	3.425441e-04	3.498842e-03	2.965268e-03	1.949643e-04	1.830134e-03	-1.728491e-03	2.572277e-03	2.274380e-03	-2.760383e-03	1.687909e-03	1.534735e-03	1.638590e-03	1.125172e-03	1.444438e-03	1.060575e-03	1.381727e-03	8.745587e-03	1.355945e-03	-3.141985e-04	1.365790e-03	-2.471533e-03	1.429362e-03	1.384684e-03	-2.193368e-03	9.753777e-04	1.408536e-03	1.531698e-03	2.043214e-03	1.722147e-03	4.624915e-04	1.357485e-03	1.776112e-03	5.411295e-03	1.511035e-03	1.004488e-03	1.267361e-03	1.074397e-03	1.162562e-03	1.116486e-03	2.419455e-04	-1.660742e-03	9.279772e-04	-9.858575e-04	9.505376e-04	8.452470e-04	8.753225e-04	-1.417898e-03	8.132458e-04	1.402177e-03	3.971949e-04	6.185837e-04	-1.809042e-04	5.106773e-05	1.385761e-03	5.211260e-04	1.573788e-03	1.363548e-03	-1.919645e-03	4.257729e-03	-3.021293e-03	8.121674e-03	1.374889e-03	1.471494e-03	1.862616e-03	1.084168e-04	1.486055e-03	7.510909e-04	1.325643e-03	1.824226e-03	1.689961e-03	1.513707e-04	6.937954e-04	1.448822e-03	1.776434e-03	-7.954179e-04	-3.237045e-03	-2.473260e-03	8.909988e-04	5.728543e-04	1.530253e-02	7.247331e-04	-5.929803e-05	8.293550e-04	7.747897e-04	1.037186e-03	1.824816e-03	-1.314061e-03	-2.974464e-03	7.590911e-04	-2.045233e-03	6.646086e-03	4.354382e-03	5.389011e-03	2.314065e-03	1.434980e-03	-7.904639e-03	8.848424e-04	1.200113e-03	-4.170285e-03	-3.759402e-03	-2.630927e-03	1.107715e-03	1.345734e-03	1.410216e-03	-3.077608e-03	-2.857540e-03	3.248356e-03	-4.424494e-03	-3.590492e-03	-3.308413e-03	2.727733e-03	3.932166e-03	9.064976e-04	1.003856e-03	1.566628e-03	8.985631e-04	1.279482e-03	1.444093e-03	1.820607e-03	2.134041e-03	-1.098822e-04	1.355176e-03	1.188971e-03	-4.155497e-04	4.884668e-04	-1.278751e-03	-1.004508e-03	-1.777135e-03	-1.536323e-03	-2.217079e-03	-2.004012e-03	-2.742251e-03	-2.423079e-03	-3.441892e-03	-2.970111e-03	-3.950770e-03	-2.321067e-03	-2.526033e-03	-1.891078e-03	-2.111037e-03	-1.408660e-03	-1.657718e-03	-8.605671e-04	-1.142560e-03	-2.623794e-04	-5.655660e-04	6.268600e-04	4.295350e-05	1.265620e-03	1.121876e-03	1.687330e-03	1.455443e-03	4.838668e-03	1.969462e-03	8.975841e-03	5.999594e-03	6.589082e-04	2.039296e-03	1.613526e-03	1.585609e-03	8.598539e-04	1.213212e-03	1.644427e-04	7.320296e-03	5.983761e-03	2.971659e-03	3.566031e-03	9.497944e-04	2.510956e-03	-4.723526e-03	-5.080076e-03	8.827015e-04	-5.519438e-03	-6.078998e-03	9.752620e-04	1.300974e-03	-3.189840e-03	-1.690176e-02	-9.740121e-03	-1.261864e-02	1.632285e-03	-1.193124e-03	-6.828824e-03	1.000767e-03	-3.210046e-03	-2.747974e-03	-4.604232e-04	3.237262e-04	7.947825e-04	3.594619e-03	-6.773706e-04	-1.310939e-03	6.656877e-04	1.584294e-03	1.277512e-03	-2.785124e-03	6.422020e-04	1.563971e-03	1.519524e-03	2.777616e-03	7.182955e-04	1.310955e-03	1.371508e-03	-2.485323e-04	-2.762986e-03	5.344648e-04	-2.322887e-03	1.519277e-03	2.899825e-04	1.599070e-03	1.494410e-03	8.845270e-04	-3.722540e-04	7.865873e-04	1.264009e-03	1.483772e-03	5.508529e-03	6.897061e-03	-2.979197e-04	-2.047129e-03	2.720926e-03	-4.515049e-04	2.025704e-03	-2.372634e-03	-5.285780e-03	1.609204e-03	1.177546e-03	-3.429657e-03	-2.479410e-03	-5.813550e-03	-3.590157e-03	-4.517758e-03	1.544101e-03	1.499581e-03	1.602964e-03	2.902970e-03	1.531119e-03	4.962661e-04	7.264845e-03	2.267070e-03	4.600886e-03	-3.983606e-03	-6.491644e-03	-2.585321e-03	3.502998e-04	-6.783982e-03	-8.472064e-03	-7.423913e-03	2.346425e-03	-3.335921e-04	-2.996132e-03	-2.238916e-03	-1.933615e-03	-2.077248e-03	3.778734e-03	-6.556933e-04	5.860118e-03	3.894129e-03	1.606465e-03	1.131484e-03	2.415809e-03	1.274381e-03	4.869325e-04	3.250809e-03	-2.554588e-03	8.554079e-04	1.625018e-03	1.337376e-03	1.407795e-03	1.288647e-03	1.266144e-03	-5.079268e-04	1.268092e-03	1.293939e-03	1.383872e-03	-1.604892e-03	1.441253e-03	1.621296e-03	2.139908e-03	1.452386e-04	1.574164e-03	1.551252e-03	4.796275e-03	9.164749e-04	9.519981e-04	9.922720e-04	-1.836274e-03	8.065523e-04	8.304459e-04	7.336967e-04	-1.182423e-03	1.313336e-03	1.342453e-03	2.213149e-04	-1.353452e-04	1.184844e-03	1.345870e-03	1.753412e-03	1.922199e-03	1.599318e-03	1.593672e-03	-3.287250e-05	6.131073e-05	1.237187e-03	1.293362e-03	-9.931468e-04	-8.171566e-04	-2.561699e-03	7.506615e-04	7.674064e-04	4.052678e-04	4.535193e-04	5.671877e-04	5.969721e-04	6.847154e-04	7.013175e-04	6.224579e-04	-1.720464e-03	-3.093465e-03	5.018250e-03	-4.861305e-03	1.057088e-03	1.291483e-03	1.388787e-03	1.471713e-03	-4.227710e-03	-3.773665e-03	-2.926004e-03	1.534908e-03	1.580743e-03	1.664037e-03	-2.809946e-03	-3.285752e-03	3.888264e-03	4.223298e-03	1.488970e-03	1.443445e-03	2.140252e-03	2.405026e-03	2.555498e-03	-1.574556e-03	-1.044485e-03	-9.035320e-04	-1.450604e-03	-1.934818e-03	-2.695931e-03	-2.266645e-03	-2.157179e-03	-1.816546e-03	-1.699684e-03	-1.318389e-03	-1.185634e-03	-7.548912e-04	-6.065416e-04	-1.390580e-04	1.759726e-05	7.869413e-04	9.261825e-04	1.765928e-04	3.337501e-04	1.668804e-03	1.744847e-03	1.828420e-03	1.923108e-03	7.356421e-03	5.472470e-03	5.946841e-03	1.446706e-03	1.407005e-03	1.035384e-03	1.082947e-03	1.348327e-04	6.422320e-03	3.107174e-03	3.335995e-03	1.421945e-03	1.397459e-03	1.701174e-03	1.698360e-03	-3.158213e-03	-3.038351e-03	1.400154e-03	1.447766e-03	-1.386146e-03	-2.975788e-03	6.460229e-04	-2.575426e-03	6.779824e-04	5.454632e-04	1.326401e-03	9.661306e-04	1.176226e-03	-5.178064e-03	-4.795324e-03	-3.543811e-03	4.263666e-04	-5.590818e-03	-1.050815e-02	-9.800461e-03	4.225676e-03	-1.599953e-03	-1.962541e-03	-1.841193e-03	-3.147721e-04	1.199239e-03	2.668431e-03	8.753128e-04	7.971815e-03	-2.758436e-03	1.390663e-03	-2.906404e-03	1.396841e-03	-2.176293e-03	1.163783e-03	-2.581112e-03	6.025163e-04	1.177667e-03	1.373123e-03	3.020041e-03	-2.387908e-03	-4.189249e-03	1.283381e-03	-3.228188e-03	-7.581761e-05	-6.143666e-03	1.407531e-03	1.820542e-03	2.014575e-03	2.439946e-03	3.909696e-03	-1.054488e-02	-2.759353e-03	-8.987708e-04	6.042468e-03	-1.395428e-03	1.474032e-03	-4.279743e-04	-2.064442e-03	1.840380e-04	7.798056e-04	-1.748424e-03	4.601879e-03	-1.868507e-03	-1.385569e-03	-2.349806e-04	-4.470711e-03	-3.377945e-03	-2.406829e-03	-2.301280e-03	1.945618e-03	1.826073e-03	1.953009e-03	3.095035e-03	1.319791e-03	1.351080e-03	3.779317e-04	5.803570e-03	2.551714e-03	-3.943291e-03	-6.924128e-03	2.395499e-03	-4.553499e-04	-2.895566e-03	-2.351471e-03	-1.543105e-03	6.849157e-03	7.925053e-03	1.583591e-03	2.355574e-03	7.237914e-04	7.510346e-04	1.770595e-03	1.220024e-03	1.195530e-03	1.155159e-03	1.152465e-03	-6.873164e-04	-5.523602e-04	1.152709e-03	1.162127e-03	1.319904e-03	1.386960e-03	2.100547e-03	1.371988e-03	1.355537e-03	3.507725e-03	8.130802e-04	8.457923e-04	6.989542e-04	7.244584e-04	-1.349068e-03	1.229424e-03	1.267867e-03	4.989789e-05	1.200639e-04	1.012389e-03	1.057951e-03	1.720156e-03	1.891295e-03	1.399939e-03	1.392634e-03	-2.107054e-04	-1.152453e-04	-2.785947e-05	1.106411e-03	1.152687e-03	-1.165985e-03	-9.937428e-04	-8.332138e-04	6.191849e-04	6.387338e-04	6.565038e-04	2.408608e-04	2.917217e-04	3.383672e-04	4.154019e-04	4.461329e-04	5.661467e-04	5.835246e-04	4.763458e-04	4.746555e-03	1.513869e-03	1.603492e-03	-3.731470e-03	1.671356e-03	1.723272e-03	1.752954e-03	1.799466e-03	-2.734603e-03	4.166436e-03	4.449424e-03	1.844486e-03	1.894769e-03	2.671511e-03	2.799683e-03	2.940705e-03	-8.413294e-04	-2.623003e-03	-2.511087e-03	-2.197515e-03	-2.088117e-03	-1.980145e-03	-1.747085e-03	-1.634380e-03	-1.513207e-03	-1.257186e-03	-1.123002e-03	-9.844670e-04	-6.948058e-04	-5.448019e-04	-3.907733e-04	8.320743e-05	1.018751e-03	1.154044e-03	2.442198e-04	4.037215e-04	5.620838e-04	2.020811e-03	2.091907e-03	2.166374e-03	2.249326e-03	2.338186e-03	5.053291e-03	5.360628e-03	1.302052e-03	1.274659e-03	1.244950e-03	8.821232e-04	9.248878e-04	5.654463e-03	5.902606e-03	3.268734e-03	3.460489e-03	3.674932e-03	1.872420e-03	1.859719e-03	1.950282e-03	2.018672e-03	-3.094453e-03	-2.968397e-03	-2.851826e-03	1.199983e-03	1.242986e-03	1.284841e-03	5.013209e-04	5.257243e-04	-2.559277e-03	-3.742839e-04	-5.558472e-03	-4.055980e-03	8.848549e-04	-1.816139e-03	4.462710e-03	1.078029e-03	1.108235e-03	-1.472816e-03	-4.875398e-03	1.544511e-03	-2.696957e-03	4.637278e-03	-2.520617e-03	-3.297668e-03	-5.170418e-03	-9.164114e-04	8.631305e-05	-3.515518e-04	-5.221078e-03	2.077670e-03	1.183477e-03	8.868537e-05	-1.838112e-03	5.885629e-04	-4.772538e-04	6.647057e-04	4.427606e-04	-4.300276e-03	1.036990e-03	-3.150369e-03	-3.016786e-03	-1.220972e-03	2.782014e-03	2.125627e-03	2.136982e-03	4.142873e-03	1.061292e-03	-7.190887e-03	-4.573458e-03	2.873015e-03	1.492214e-03	-2.023542e-03	1.233875e-03	-2.640004e-03	1.226463e-03	1.249331e-03	-2.204398e-03	2.361857e-03	-2.375165e-03	-1.709826e-03	1.436429e-03	2.256615e-03	-1.396527e-03	3.689680e-03	-6.695522e-05	-2.233297e-03	2.277278e-03	2.197771e-03	2.146763e-03	1.193548e-03	1.200021e-03	-3.833527e-03	2.142300e-03	6.042078e-04	-2.722669e-03	-2.419752e-03	-1.649177e-03	1.391173e-03	1.934416e-03	8.776968e-04	1.092124e-03	1.071666e-03	1.050012e-03	1.046827e-03	-7.118402e-04	-5.899023e-04	1.044474e-03	1.050290e-03	1.064470e-03	1.240097e-03	1.307502e-03	1.225815e-03	1.191566e-03	2.575151e-03	6.974090e-04	7.310593e-04	6.094268e-04	6.383972e-04	1.143585e-03	1.185315e-03	-3.716880e-05	2.463929e-05	9.150568e-04	1.614712e-03	1.762384e-03	1.239234e-03	1.223197e-03	-2.780894e-04	-1.924748e-04	-1.084454e-04	9.686602e-04	9.982942e-04	-1.303663e-03	-1.140429e-03	-9.843130e-04	-8.425809e-04	5.026036e-04	5.238067e-04	5.430335e-04	5.656164e-04	1.388700e-04	1.904280e-04	2.319915e-04	2.734058e-04	3.067789e-04	4.839793e-04	4.624548e-04	3.405842e-04	1.652675e-03	-3.635833e-03	-3.458611e-03	1.727754e-03	1.790042e-03	1.834021e-03	1.862476e-03	1.885858e-03	4.340529e-03	4.528802e-03	2.150846e-03	2.199367e-03	2.894865e-03	3.010040e-03	3.135715e-03	3.271660e-03	-2.541512e-03	-2.435561e-03	-2.331557e-03	-2.130942e-03	-2.028217e-03	-1.920793e-03	-1.814305e-03	-1.588060e-03	-1.467101e-03	-1.359131e-03	-1.098619e-03	-9.539082e-04	-8.231306e-04	-6.719153e-04	-5.328996e-04	-3.757573e-04	-2.281715e-04	1.300638e-03	1.165506e-03	2.479102e-04	4.049126e-04	5.669256e-04	7.282509e-04	2.270508e-03	2.344307e-03	2.422759e-03	2.504341e-03	2.587257e-03	2.680666e-03	4.704274e-03	4.865243e-03	1.154872e-03	1.128359e-03	1.110569e-03	7.602230e-04	8.064455e-04	8.350969e-04	5.000667e-03	5.070966e-03	5.005727e-03	3.420788e-03	3.583723e-03	3.765971e-03	3.953430e-03	1.923945e-03	1.996089e-03	2.100893e-03	2.220275e-03	-2.653276e-03	-2.888750e-03	-2.773367e-03	1.052745e-03	1.078508e-03	1.130311e-03	1.148463e-03	3.685150e-04	3.966582e-04	4.190317e-04	-2.026724e-03	-4.996193e-03	1.280065e-03	-7.833444e-03	-2.175791e-03	1.104920e-03	-4.199571e-04	-2.304111e-03	-3.684026e-03	-2.486116e-03	-1.548211e-03	7.736014e-06	3.044396e-03	2.922674e-03	-2.529687e-04	-1.767955e-03	-2.087898e-03	-2.187553e-03	-2.085380e-03	-2.556745e-03	2.342053e-03	2.402356e-03	1.364567e-03	1.839545e-03	1.027211e-03	1.065655e-03	5.146412e-04	-4.504165e-03	-2.490706e-03	-2.807192e-03	1.199297e-03	1.440994e-03	1.418329e-04	-1.008493e-03	1.624205e-03	7.835533e-04	2.325984e-03	-4.295247e-03	-5.141032e-04	-8.135863e-03	-3.871990e-03	-2.247484e-03	4.762087e-03	5.315656e-03	1.007282e-03	-1.400248e-03	-2.525666e-03	3.713057e-03	-2.398963e-03	-3.059221e-03	-8.677665e-04	-3.033579e-03	-4.490127e-04	-1.873876e-03	3.901129e-04	3.586864e-04	-4.068914e-03	9.910856e-04	-2.931693e-03	1.691993e-03	1.085477e-03	-1.350264e-03	2.430977e-03	2.395435e-03	2.335586e-03	1.050899e-03	1.797435e-03	6.373019e-04	-2.428535e-03	-1.710310e-03	9.855373e-04	9.838457e-04	9.659792e-04	9.677441e-04	-6.180047e-04	-7.274690e-04	9.551330e-04	9.636798e-04	9.659604e-04	9.746040e-04	1.147844e-03	1.208485e-03	1.088112e-03	1.964858e-03	6.032492e-04	6.270853e-04	5.467401e-04	5.650665e-04	1.057891e-03	1.097825e-03	-1.096500e-04	-3.909237e-05	1.462650e-03	1.572726e-03	1.093309e-03	-3.312619e-04	-2.415865e-04	-1.744875e-04	8.570333e-04	-1.252432e-03	-1.105802e-03	-9.697578e-04	-8.450062e-04	4.025781e-04	4.325323e-04	4.451810e-04	4.762842e-04	4.932207e-04	6.939263e-05	1.053444e-04	1.583574e-04	1.858627e-04	2.310661e-04	-3.509329e-03	-3.347413e-03	-3.198581e-03	1.724992e-03	1.788017e-03	1.851389e-03	1.887001e-03	1.921154e-03	4.212029e-03	4.300157e-03	2.329134e-03	2.335833e-03	3.138583e-03	3.252172e-03	3.386242e-03	-2.374135e-03	-2.284043e-03	-2.179152e-03	-2.092800e-03	-1.981873e-03	-1.887008e-03	-1.772113e-03	-1.616241e-03	-1.434532e-03	-1.259260e-03	-7.368680e-04	-4.554147e-04	-1.613770e-04	4.504250e-04	7.535480e-04	2.397513e-03	2.467836e-03	2.558704e-03	2.644119e-03	2.728202e-03	2.827744e-03	2.927314e-03	4.359216e-03	4.401018e-03	1.029518e-03	1.023398e-03	1.004815e-03	6.573295e-04	7.133872e-04	4.411050e-03	4.342341e-03	4.140218e-03	3.521108e-03	3.661582e-03	3.814132e-03	3.958443e-03	4.087723e-03	1.946689e-03	1.990903e-03	2.046032e-03	2.168314e-03	-2.693987e-03	-2.588550e-03	9.299611e-04	9.966793e-04	2.536061e-04	2.935456e-04	3.103468e-04	3.445806e-04	5.460288e-03	-8.182506e-03	-2.096868e-03	-2.046891e-03	1.431514e-03	1.196376e-03	-3.815011e-03	-1.273322e-03	-2.946244e-03	2.252964e-03	1.331178e-03	-2.405665e-03	-1.449615e-03	-1.981476e-03	2.250030e-03	-4.864074e-03	1.458833e-03	-7.936161e-04	-1.856143e-03	1.136879e-03	6.484484e-04	-3.644063e-03	3.072566e-04	9.400262e-04	9.120828e-04	8.384498e-04	-4.511961e-04	-2.477906e-05	-2.337024e-03	4.695374e-04	-6.327309e-04	-5.399814e-04	3.243032e-03	-3.345204e-03	-2.375145e-03	-1.672939e-03	2.309298e-03	1.083065e-03	-7.715553e-03	-3.488863e-03	-2.152268e-03	-2.425405e-03	1.415749e-03	9.664015e-04	1.521452e-03	1.701601e-03	-4.006714e-03	-1.780506e-03	-4.968358e-03	-2.332785e-03	4.813596e-03	-1.323508e-03	-2.235356e-03	-2.175958e-03	1.093779e-03	-1.582362e-03	-2.830903e-03	-2.722118e-03	1.309337e-03	2.443566e-03	2.458591e-03	9.562679e-04	5.799445e-04	-1.851142e-04	-1.725494e-03	8.946554e-04	8.845535e-04	-7.348905e-04	8.844051e-04	8.849633e-04	1.036214e-03	1.519255e-03	5.225426e-04	9.638990e-04	9.969537e-04	-1.297669e-04	1.259632e-03	9.601979e-04	9.511700e-04	-3.249950e-04	-2.281537e-04	7.119923e-04	-1.192624e-03	-1.059919e-03	-9.453252e-04	-8.395542e-04	3.523057e-04	3.988558e-04	4.277042e-04	6.361499e-05	1.391183e-04	-3.204854e-03	-3.071935e-03	1.832020e-03	1.913757e-03	4.022383e-03	2.448136e-03	3.405262e-03	-1.247712e-03	-2.183759e-03	-1.989046e-03	-1.786794e-03	-1.591793e-03	-1.418393e-03	-1.038831e-03	-7.867956e-04	-5.208654e-04	-2.469091e-04	3.723427e-05	3.286359e-04	6.187306e-04	8.786411e-04	2.548051e-03	2.716126e-03	2.874654e-03	2.982176e-03	3.094284e-03	3.984903e-03	3.938027e-03	9.339413e-04	9.254717e-04	9.027046e-04	5.575457e-04	5.926289e-04	3.860983e-03	3.701014e-03	3.411663e-03	2.968606e-03	3.536708e-03	3.660438e-03	3.783132e-03	3.890315e-03	3.959927e-03	4.056670e-03	1.974496e-03	2.048894e-03	-2.633415e-03	-2.515437e-03	7.771772e-04	8.914718e-04	9.314006e-04	2.041548e-04	2.588408e-04	-4.101073e-03	4.223519e-03	4.203152e-03	-5.341319e-03	-9.642988e-04	-3.635849e-03	-3.348857e-03	1.892424e-03	-1.973273e-03	-1.694773e-03	2.579509e-03	1.543268e-03	4.730102e-04	-1.570864e-03	-2.342780e-03	-2.918471e-03	8.547457e-04	2.039354e-03	-4.565064e-03	7.963608e-04	-1.459721e-03	3.739404e-03	1.155042e-03	-1.900175e-03	3.764020e-04	8.425564e-04	7.714190e-04	6.057314e-04	9.632108e-04	9.984477e-04	-1.351760e-03	-1.241829e-03	-6.152088e-03	-3.288649e-03	-3.428903e-03	-2.709669e-03	2.443896e-03	9.447114e-04	8.403600e-04	-7.293639e-04	-7.008303e-03	-7.086561e-03	-2.194297e-03	9.298803e-04	-2.810760e-03	-1.344510e-04	1.043043e-03	-1.182107e-03	-1.798144e-03	5.500099e-04	-2.253310e-03	-6.445502e-04	-5.597024e-04	-3.158942e-03	-1.969159e-03	9.023583e-04	1.088610e-03	8.535078e-04	-2.333352e-03	2.949006e-03	-8.241986e-04	-2.082957e-03	-2.004765e-03	1.359974e-03	-1.580708e-03	-2.614847e-03	1.153026e-03	2.251346e-03	7.147975e-04	-1.628269e-04	-7.164598e-04	7.918864e-04	7.911312e-04	8.071991e-04	8.277794e-04	1.193057e-03	4.227305e-04	8.584948e-04	8.780372e-04	3.409785e-04	8.229572e-04	8.124041e-04	8.497727e-04	-4.623810e-04	-3.549665e-04	-2.674915e-04	-1.119793e-03	2.491414e-04	2.980210e-04	-1.703838e-04	-7.492133e-05	8.123275e-04	-3.035926e-03	1.556614e-03	1.717659e-03	3.346324e-03	-2.153419e-03	-1.959753e-03	-1.234630e-03	-1.760400e-03	-1.570076e-03	-1.397062e-03	-1.058048e-03	-8.449387e-04	-6.039147e-04	-3.510712e-04	-8.974706e-05	1.812929e-04	4.554221e-04	2.505843e-03	2.541390e-03	2.658690e-03	2.831336e-03	3.016723e-03	3.196486e-03	3.581276e-03	3.469218e-03	8.384332e-04	7.997650e-04	4.695157e-04	5.056118e-04	3.338573e-03	3.131831e-03	2.804445e-03	2.365858e-03	1.812923e-03	3.467660e-03	3.571644e-03	3.666450e-03	3.729798e-03	3.