# vtk DataFile Version 3.0
vtk output
ASCII
DATASET UNSTRUCTURED_GRID
POINTS 5233 float
9.997500e-01	-3.632909e-05	0.0	9.990000e-01	-1.452618e-04	0.0	9.977600e-01	-3.252008e-04	0.0	9.960200e-01	-5.774943e-04	0.0	9.937800e-01	-9.022942e-04	0.0	9.910500e-01	-1.298763e-03	0.0	9.878400e-01	-1.766726e-03	0.0	9.841300e-01	-2.311194e-03	0.0	9.799500e-01	-2.930640e-03	0.0	9.752800e-01	-3.631444e-03	0.0	9.701500e-01	-4.412625e-03	0.0	9.645400e-01	-5.280292e-03	0.0	9.584700e-01	-6.233365e-03	0.0	9.519400e-01	-7.272227e-03	0.0	9.449600e-01	-8.393908e-03	0.0	9.375400e-01	-9.593773e-03	0.0	9.296900e-01	-1.086609e-02	0.0	9.214000e-01	-1.220804e-02	0.0	9.127000e-01	-1.361074e-02	0.0	9.035800e-01	-1.507272e-02	0.0	8.940600e-01	-1.658877e-02	0.0	8.841500e-01	-1.815610e-02	0.0	8.738500e-01	-1.977361e-02	0.0	8.631800e-01	-2.143627e-02	0.0	8.521600e-01	-2.313752e-02	0.0	8.407700e-01	-2.487471e-02	0.0	8.290500e-01	-2.663345e-02	0.0	8.170100e-01	-2.840162e-02	0.0	8.046400e-01	-3.016792e-02	0.0	7.919700e-01	-3.191393e-02	0.0	7.790100e-01	-3.362378e-02	0.0	7.657800e-01	-3.528073e-02	0.0	7.522800e-01	-3.687177e-02	0.0	7.385200e-01	-3.838440e-02	0.0	7.245300e-01	-3.980643e-02	0.0	7.103200e-01	-4.113073e-02	0.0	6.958900e-01	-4.235375e-02	0.0	6.812700e-01	-4.347212e-02	0.0	6.664700e-01	-4.448693e-02	0.0	6.515000e-01	-4.540154e-02	0.0	6.363800e-01	-4.622067e-02	0.0	6.211300e-01	-4.695082e-02	0.0	6.057600e-01	-4.760016e-02	0.0	5.902800e-01	-4.817747e-02	0.0	5.747100e-01	-4.869148e-02	0.0	5.590600e-01	-4.915119e-02	0.0	5.433600e-01	-4.956464e-02	0.0	5.276100e-01	-4.993996e-02	0.0	5.118400e-01	-5.028359e-02	0.0	4.960500e-01	-5.060149e-02	0.0	4.802700e-01	-5.089775e-02	0.0	4.645100e-01	-5.117554e-02	0.0	4.487800e-01	-5.143670e-02	0.0	4.331100e-01	-5.168146e-02	0.0	4.175000e-01	-5.190932e-02	0.0	4.019700e-01	-5.211839e-02	0.0	3.865400e-01	-5.230586e-02	0.0	3.712300e-01	-5.246816e-02	0.0	3.560400e-01	-5.260130e-02	0.0	3.409900e-01	-5.270061e-02	0.0	3.261100e-01	-5.276113e-02	0.0	3.114000e-01	-5.277790e-02	0.0	2.968700e-01	-5.274582e-02	0.0	2.825500e-01	-5.265996e-02	0.0	2.684500e-01	-5.251559e-02	0.0	2.545700e-01	-5.230801e-02	0.0	2.409400e-01	-5.203324e-02	0.0	2.275700e-01	-5.168749e-02	0.0	2.144700e-01	-5.126729e-02	0.0	2.016600e-01	-5.076993e-02	0.0	1.891400e-01	-5.019238e-02	0.0	1.769300e-01	-4.953284e-02	0.0	1.650400e-01	-4.878952e-02	0.0	1.534900e-01	-4.796177e-02	0.0	1.422900e-01	-4.704883e-02	0.0	1.314400e-01	-4.604934e-02	0.0	1.209500e-01	-4.496296e-02	0.0	1.108500e-01	-4.379208e-02	0.0	1.011300e-01	-4.253503e-02	0.0	9.181000e-02	-4.119389e-02	0.0	8.290000e-02	-3.976997e-02	0.0	7.440000e-02	-3.826304e-02	0.0	6.633000e-02	-3.667657e-02	0.0	5.869000e-02	-3.501058e-02	0.0	5.149000e-02	-3.326708e-02	0.0	4.474000e-02	-3.144844e-02	0.0	3.844000e-02	-2.955433e-02	0.0	3.260000e-02	-2.758711e-02	0.0	2.723000e-02	-2.554977e-02	0.0	2.232000e-02	-2.343708e-02	0.0	1.790000e-02	-2.126113e-02	0.0	1.395000e-02	-1.901092e-02	0.0	1.049000e-02	-1.669561e-02	0.0	7.520000e-03	-1.431461e-02	0.0	5.040000e-03	-1.186637e-02	0.0	3.050000e-03	-9.347302e-03	0.0	1.560000e-03	-6.769269e-03	0.0	5.600000e-04	-4.108233e-03	0.0	6.000000e-05	-1.363608e-03	0.0	0.000000e+00	0.000000e+00	0.0	6.000000e-05	1.350236e-03	0.0	5.600000e-04	4.050826e-03	0.0	1.560000e-03	6.663226e-03	0.0	3.050000e-03	9.195473e-03	0.0	5.040000e-03	1.167583e-02	0.0	7.520000e-03	1.409653e-02	0.0	1.049000e-02	1.646478e-02	0.0	1.395000e-02	1.878581e-02	0.0	1.790000e-02	2.106403e-02	0.0	2.232000e-02	2.329392e-02	0.0	2.723000e-02	2.549065e-02	0.0	3.260000e-02	2.764558e-02	0.0	3.844000e-02	2.976800e-02	0.0	4.474000e-02	3.185849e-02	0.0	5.149000e-02	3.391797e-02	0.0	5.869000e-02	3.595015e-02	0.0	6.633000e-02	3.795531e-02	0.0	7.440000e-02	3.993367e-02	0.0	8.290000e-02	4.188739e-02	0.0	9.181000e-02	4.381361e-02	0.0	1.011300e-01	4.571359e-02	0.0	1.108500e-01	4.758588e-02	0.0	1.209500e-01	4.942683e-02	0.0	1.314400e-01	5.123782e-02	0.0	1.422900e-01	5.301272e-02	0.0	1.534900e-01	5.474871e-02	0.0	1.650400e-01	5.644398e-02	0.0	1.769300e-01	5.809472e-02	0.0	1.891400e-01	5.969553e-02	0.0	2.016600e-01	6.124223e-02	0.0	2.144700e-01	6.272926e-02	0.0	2.275700e-01	6.415328e-02	0.0	2.409400e-01	6.550849e-02	0.0	2.545700e-01	6.679020e-02	0.0	2.684500e-01	6.799357e-02	0.0	2.825500e-01	6.911218e-02	0.0	2.968700e-01	7.014214e-02	0.0	3.114000e-01	7.107860e-02	0.0	3.261100e-01	7.191555e-02	0.0	3.409900e-01	7.264840e-02	0.0	3.560400e-01	7.327286e-02	0.0	3.712300e-01	7.378330e-02	0.0	3.865400e-01	7.417483e-02	0.0	4.019700e-01	7.444303e-02	0.0	4.175000e-01	7.458295e-02	0.0	4.331100e-01	7.458992e-02	0.0	4.487800e-01	7.445955e-02	0.0	4.645100e-01	7.418745e-02	0.0	4.802700e-01	7.376991e-02	0.0	4.960500e-01	7.320341e-02	0.0	5.118400e-01	7.248482e-02	0.0	5.276100e-01	7.161270e-02	0.0	5.433600e-01	7.058503e-02	0.0	5.590600e-01	6.940265e-02	0.0	5.747100e-01	6.806549e-02	0.0	5.902800e-01	6.657731e-02	0.0	6.057600e-01	6.494175e-02	0.0	6.211300e-01	6.316504e-02	0.0	6.363800e-01	6.125402e-02	0.0	6.515000e-01	5.921698e-02	0.0	6.664700e-01	5.706516e-02	0.0	6.812700e-01	5.481151e-02	0.0	6.958900e-01	5.246892e-02	0.0	7.103200e-01	5.005129e-02	0.0	7.245300e-01	4.757686e-02	0.0	7.385200e-01	4.505941e-02	0.0	7.522800e-01	4.251466e-02	0.0	7.657800e-01	3.996213e-02	0.0	7.790100e-01	3.741749e-02	0.0	7.919700e-01	3.489399e-02	0.0	8.046400e-01	3.240819e-02	0.0	8.170100e-01	2.997405e-02	0.0	8.290500e-01	2.760884e-02	0.0	8.407700e-01	2.532127e-02	0.0	8.521600e-01	2.312328e-02	0.0	8.631800e-01	2.103157e-02	0.0	8.738500e-01	1.905016e-02	0.0	8.841500e-01	1.718895e-02	0.0	8.940600e-01	1.545535e-02	0.0	9.035800e-01	1.385019e-02	0.0	9.127000e-01	1.237271e-02	0.0	9.214000e-01	1.102010e-02	0.0	9.296900e-01	9.781662e-03	0.0	9.375400e-01	8.650401e-03	0.0	9.449600e-01	7.612208e-03	0.0	9.519400e-01	6.656126e-03	0.0	9.584700e-01	5.772587e-03	0.0	9.645400e-01	4.954359e-03	0.0	9.701500e-01	4.195689e-03	0.0	9.752800e-01	3.496291e-03	0.0	9.799500e-01	2.852720e-03	0.0	9.841300e-01	2.270023e-03	0.0	9.878400e-01	1.747228e-03	0.0	9.910500e-01	1.290667e-03	0.0	9.937800e-01	8.994899e-04	0.0	9.960200e-01	5.767420e-04	0.0	9.977600e-01	3.250644e-04	0.0	9.990000e-01	1.452495e-04	0.0	9.997500e-01	3.632890e-05	0.0	1.000000e+00	0.000000e+00	0.0	1.984229e+01	2.506660e+00	0.0	1.937166e+01	4.973800e+00	0.0	1.859553e+01	7.362490e+00	0.0	1.752613e+01	9.635070e+00	0.0	1.618034e+01	1.175571e+01	0.0	1.457937e+01	1.369094e+01	0.0	1.274848e+01	1.541027e+01	0.0	1.071654e+01	1.688656e+01	0.0	8.515590e+00	1.809654e+01	0.0	6.180340e+00	1.902113e+01	0.0	3.747630e+00	1.964575e+01	0.0	1.255810e+00	1.996053e+01	0.0	-1.255810e+00	1.996053e+01	0.0	-3.747630e+00	1.964574e+01	0.0	-6.180340e+00	1.902113e+01	0.0	-8.515590e+00	1.809654e+01	0.0	-1.071654e+01	1.688656e+01	0.0	-1.274848e+01	1.541026e+01	0.0	-1.457937e+01	1.369094e+01	0.0	-1.618034e+01	1.175570e+01	0.0	-1.752613e+01	9.635070e+00	0.0	-1.859553e+01	7.362490e+00	0.0	-1.937166e+01	4.973800e+00	0.0	-1.984229e+01	2.506660e+00	0.0	-2.000000e+01	0.000000e+00	0.0	-1.984229e+01	-2.506670e+00	0.0	-1.937166e+01	-4.973800e+00	0.0	-1.859553e+01	-7.362490e+00	0.0	-1.752613e+01	-9.635080e+00	0.0	-1.618034e+01	-1.175571e+01	0.0	-1.457937e+01	-1.369094e+01	0.0	-1.274848e+01	-1.541027e+01	0.0	-1.071653e+01	-1.688656e+01	0.0	-8.515580e+00	-1.809654e+01	0.0	-6.180340e+00	-1.902113e+01	0.0	-3.747620e+00	-1.964575e+01	0.0	-1.255810e+00	-1.996053e+01	0.0	1.255810e+00	-1.996053e+01	0.0	3.747630e+00	-1.964574e+01	0.0	6.180340e+00	-1.902113e+01	0.0	8.515590e+00	-1.809654e+01	0.0	1.071654e+01	-1.688656e+01	0.0	1.274848e+01	-1.541026e+01	0.0	1.457937e+01	-1.369094e+01	0.0	1.618034e+01	-1.175570e+01	0.0	1.752614e+01	-9.635070e+00	0.0	1.859553e+01	-7.362490e+00	0.0	1.937166e+01	-4.973790e+00	0.0	1.984229e+01	-2.506660e+00	0.0	2.000000e+01	0.000000e+00	0.0	6.093892e-02	-4.285144e-02	0.0	6.600410e-01	-5.844939e-02	0.0	4.255297e-01	8.863687e-02	0.0	6.904536e-01	6.677179e-02	0.0	3.791252e-01	-6.656260e-02	0.0	9.994589e-01	-7.258723e-04	0.0	9.985402e-01	-1.320872e-03	0.0	7.738251e-01	-4.634860e-02	0.0	6.897588e-01	-5.606349e-02	0.0	-1.367138e-03	6.233161e-03	0.0	7.467650e-01	-4.997311e-02	0.0	5.838090e-01	8.122916e-02	0.0	9.927651e-01	-3.598793e-03	0.0	9.898616e-01	-4.480982e-03	0.0	5.994275e-01	7.958836e-02	0.0	7.187102e-01	-5.322760e-02	0.0	-1.548094e-03	7.305687e-04	0.0	9.864673e-01	-5.441292e-03	0.0	9.825916e-01	-6.470515e-03	0.0	-1.358171e-03	-6.336027e-03	0.0	6.449375e-01	-5.947833e-02	0.0	8.244939e-01	-3.842106e-02	0.0	7.997632e-01	-4.246746e-02	0.0	3.482204e-01	8.660152e-02	0.0	8.478910e-01	-3.434813e-02	0.0	2.468390e-01	7.862192e-02	0.0	8.698983e-01	-3.032503e-02	0.0	1.001408e-02	2.079824e-02	0.0	8.904116e-01	-2.642047e-02	0.0	7.722818e-02	-4.682321e-02	0.0	9.093595e-01	-2.267674e-02	0.0	-1.865007e-03	-3.138557e-03	0.0	9.422484e-01	-1.580904e-02	0.0	9.266631e-01	-1.912583e-02	0.0	1.806769e-02	-2.637803e-02	0.0	4.256782e-01	-6.623083e-02	0.0	8.590773e-01	-3.232303e-02	0.0	9.560748e-01	-1.276843e-02	0.0	9.782290e-01	-7.589010e-03	0.0	9.680882e-01	-1.002215e-02	0.0	1.584746e-01	-5.900398e-02	0.0	9.000881e-01	-2.452666e-02	0.0	7.604299e-01	-4.820093e-02	0.0	9.971132e-01	-2.058079e-03	0.0	5.988429e-01	-6.197001e-02	0.0	4.413590e-01	-6.604490e-02	0.0	5.361230e-01	-6.418097e-02	0.0	4.728882e-01	-6.557080e-02	0.0	5.045102e-01	-6.495629e-02	0.0	4.886866e-01	-6.528085e-02	0.0	1.251652e-01	-5.514410e-02	0.0	2.799454e-02	-3.148915e-02	0.0	3.945492e-01	-6.649285e-02	0.0	4.640172e-02	-3.855324e-02	0.0	4.100682e-01	-6.638196e-02	0.0	3.187978e-01	-6.636792e-02	0.0	3.486567e-01	-6.657206e-02	0.0	3.367005e-02	-3.391128e-02	0.0	2.896281e-01	-6.592628e-02	0.0	9.346743e-01	-1.743395e-02	0.0	1.470184e-01	-5.780948e-02	0.0	1.948400e-01	-6.200962e-02	0.0	8.600599e-02	-4.867547e-02	0.0	1.048018e-01	-5.210645e-02	0.0	5.676108e-01	-6.321237e-02	0.0	1.702734e-01	-6.010386e-02	0.0	6.143295e-01	-6.122907e-02	0.0	8.803501e-01	-2.835590e-02	0.0	2.280418e-02	-2.897635e-02	0.0	9.951875e-01	-2.803889e-03	0.0	6.796488e-03	-1.820110e-02	0.0	1.798544e-02	2.626178e-02	0.0	9.182203e-01	-2.087471e-02	0.0	9.49388
[...]
POINT_DATA 5233

SCALARS Conservative_1 float 1
LOOKUP_TABLE default
4.349157e-01	2.200422e-01	1.803994e-01	1.506568e-01	1.312197e-01	1.163274e-01	1.044576e-01	9.482184e-02	8.691277e-02	8.035224e-02	7.485622e-02	7.022532e-02	6.627548e-02	6.289816e-02	5.998194e-02	5.745046e-02	5.523883e-02	5.317227e-02	5.123022e-02	4.946034e-02	4.803122e-02	4.683162e-02	4.584950e-02	4.505366e-02	4.436131e-02	4.383769e-02	4.336272e-02	4.301941e-02	4.267901e-02	4.238588e-02	4.210876e-02	4.174828e-02	4.142337e-02	4.093421e-02	4.044942e-02	3.980774e-02	3.916322e-02	3.837403e-02	3.760296e-02	3.671405e-02	3.586922e-02	3.493956e-02	3.408090e-02	3.316675e-02	3.233978e-02	3.148845e-02	3.072212e-02	2.996497e-02	2.927522e-02	2.861802e-02	2.801703e-02	2.744921e-02	2.691153e-02	2.643401e-02	2.596142e-02	2.555496e-02	2.514401e-02	2.478551e-02	2.441463e-02	2.408611e-02	2.373722e-02	2.342342e-02	2.307828e-02	2.276076e-02	2.240479e-02	2.206730e-02	2.168573e-02	2.131389e-02	2.089802e-02	2.047238e-02	2.001485e-02	1.952395e-02	1.901322e-02	1.845434e-02	1.786818e-02	1.724460e-02	1.656887e-02	1.585906e-02	1.509426e-02	1.428518e-02	1.341611e-02	1.249306e-02	1.150660e-02	1.045495e-02	9.330316e-03	8.133105e-03	6.853235e-03	5.489886e-03	4.047219e-03	2.511834e-03	9.366381e-04	-5.158348e-04	-2.399142e-03	-4.823216e-03	-1.981238e-03	6.509778e-03	8.171134e-03	2.484184e-03	-4.889296e-03	-1.174696e-02	-1.809743e-02	-3.196692e-02	-5.252472e-02	-6.947869e-02	-8.475379e-02	-1.077163e-01	-1.347610e-01	-1.534893e-01	-1.616375e-01	-1.646267e-01	-1.661603e-01	-1.667507e-01	-1.661666e-01	-1.641259e-01	-1.609819e-01	-1.572117e-01	-1.532916e-01	-1.495398e-01	-1.462655e-01	-1.435343e-01	-1.413040e-01	-1.396816e-01	-1.387084e-01	-1.383506e-01	-1.382414e-01	-1.380864e-01	-1.378058e-01	-1.374353e-01	-1.370175e-01	-1.365573e-01	-1.358409e-01	-1.349707e-01	-1.339451e-01	-1.329858e-01	-1.322817e-01	-1.316009e-01	-1.305695e-01	-1.283500e-01	-1.246736e-01	-1.186550e-01	-1.088802e-01	-9.612409e-02	-8.567318e-02	-8.159007e-02	-8.269438e-02	-8.524111e-02	-8.724401e-02	-8.847567e-02	-8.913280e-02	-8.942290e-02	-8.922504e-02	-8.870599e-02	-8.774639e-02	-8.655047e-02	-8.518415e-02	-8.356955e-02	-8.196499e-02	-8.015914e-02	-7.833216e-02	-7.647905e-02	-7.455097e-02	-7.272015e-02	-7.082313e-02	-6.908932e-02	-6.731763e-02	-6.574035e-02	-6.415612e-02	-6.278881e-02	-6.143632e-02	-6.031221e-02	-5.921815e-02	-5.836747e-02	-5.753828e-02	-5.697440e-02	-5.652059e-02	-5.626556e-02	-5.624390e-02	-5.644237e-02	-5.698999e-02	-5.781096e-02	-5.917005e-02	-6.084795e-02	-6.280888e-02	-6.497750e-02	-6.756540e-02	-7.050161e-02	-7.388268e-02	-7.766518e-02	-8.195220e-02	-8.680088e-02	-9.237877e-02	-9.885005e-02	-1.064954e-01	-1.156175e-01	-1.266844e-01	-1.403109e-01	-1.610543e-01	-1.801562e-01	-3.441958e-01	3.461666e-02	-1.224111e-04	-1.336129e-04	-1.440371e-04	-1.528496e-04	-1.635865e-04	-1.715230e-04	-1.802171e-04	-1.826134e-04	-1.754685e-04	-1.727753e-04	-1.776750e-04	-1.781754e-04	-1.794445e-04	-1.698387e-04	-1.494664e-04	-1.397548e-04	-1.200008e-04	-1.059374e-04	-9.071066e-05	-7.082913e-05	-4.309073e-05	-2.702694e-05	3.521278e-05	1.870072e-04	1.373321e-04	1.618288e-04	2.269064e-04	2.331109e-04	1.416033e-04	1.754750e-04	2.041919e-04	2.188751e-04	2.305360e-04	2.320873e-04	2.307553e-04	2.184644e-04	1.824566e-04	1.505249e-04	9.067884e-05	6.586456e-05	5.331886e-05	3.147427e-05	9.442900e-06	-1.330969e-05	-3.454003e-05	-5.326291e-05	-6.937662e-05	-8.482838e-05	-9.836728e-05	-1.110872e-04	1.008214e-02	3.288736e-02	-7.279678e-02	-6.232414e-02	2.208286e-02	3.397312e-01	2.436115e-01	3.810743e-02	3.441782e-02	-3.256177e-02	3.702620e-02	-7.141101e-02	1.293673e-01	1.132116e-01	-7.017621e-02	3.581149e-02	-1.376000e-02	1.009943e-01	9.144796e-02	4.063380e-03	3.211125e-02	4.026534e-02	3.913613e-02	-8.707220e-02	4.166339e-02	-1.102429e-01	4.350118e-02	-1.144088e-01	4.602212e-02	1.182786e-02	4.954745e-02	-1.908586e-03	5.807639e-02	5.351879e-02	1.687509e-03	2.316464e-02	4.250532e-02	6.406022e-02	8.375875e-02	7.222140e-02	1.676294e-02	4.765848e-02	3.760750e-02	1.851255e-01	2.970733e-02	2.358932e-02	2.683119e-02	2.451887e-02	2.560437e-02	2.504909e-02	1.523084e-02	4.459814e-03	2.241479e-02	8.061985e-03	2.278850e-02	2.086263e-02	2.145019e-02	5.739641e-03	2.028803e-02	5.567557e-02	1.629305e-02	1.802082e-02	1.260797e-02	1.401244e-02	2.820435e-02	1.721450e-02	3.051205e-02	4.465089e-02	3.112001e-03	1.518028e-01	-3.030668e-03	-1.356316e-01	5.152660e-02	6.084319e-02	7.745456e-02	-4.655256e-02	4.090206e-02	1.938552e-02	2.751082e-02	3.645822e-02	3.862898e-02	1.464509e-02	1.873806e-02	2.895849e-02	3.368560e-02	9.106186e-03	-3.590470e-03	3.146561e-04	2.175031e-02	1.762857e-02	4.602507e-01	1.907678e-02	1.333790e-02	2.056497e-02	1.970203e-02	2.403393e-02	3.515561e-02	-2.043338e-02	6.543808e-03	-7.443165e-02	-8.477367e-03	-1.421566e-01	-1.389411e-01	-1.433307e-01	-1.195100e-01	-7.167007e-02	-1.698527e-01	-7.507073e-02	-7.533263e-02	-8.371905e-02	-7.497662e-02	-5.513086e-02	-7.554363e-02	-7.393692e-02	-7.240620e-02	-6.113309e-02	-5.772647e-02	-1.286747e-01	-8.914995e-02	-7.138565e-02	-6.550672e-02	-1.231143e-01	-1.356393e-01	-1.064089e-01	-1.089268e-01	-1.163456e-01	-1.013765e-01	-7.478976e-02	-7.112438e-02	-1.174333e-01	-1.184882e-01	-6.760797e-02	-1.149598e-01	-1.129493e-01	-6.493673e-02	-7.250278e-02	-5.778263e-02	-5.990868e-02	-5.468645e-02	-5.602930e-02	-5.348965e-02	-5.383803e-02	-5.627699e-02	-5.382253e-02	-6.825812e-02	-5.937236e-02	-7.904457e-02	-5.356787e-02	-5.433945e-02	-5.416757e-02	-5.356369e-02	-5.682988e-02	-5.527776e-02	-6.105761e-02	-5.877666e-02	-6.625749e-02	-6.358865e-02	-7.354999e-02	-6.892818e-02	-1.140895e-01	-1.116228e-01	-1.169413e-01	-1.156986e-01	-1.416798e-01	-1.178777e-01	-1.287261e-01	-1.434694e-01	1.839443e-02	-6.982169e-02	6.780681e-02	3.966465e-02	2.114370e-02	2.620384e-02	-5.710792e-02	-1.395734e-01	-9.159040e-02	-1.256447e-01	-1.321108e-01	-1.077353e-01	-1.210503e-01	-9.560738e-02	-1.034209e-01	-1.045614e-01	-1.132687e-01	-1.261151e-01	-9.576001e-02	-7.768817e-02	-6.318597e-02	-3.994931e-01	-2.156931e-01	-2.885603e-01	3.129098e-02	6.939984e-03	-1.437912e-01	-7.548181e-02	1.659317e-03	-9.969646e-04	1.098562e-02	1.578176e-02	1.998906e-02	-1.117635e-01	-3.009099e-02	-2.060600e-02	1.754160e-02	3.066084e-02	4.837500e-02	-1.300748e-03	-5.963231e-02	2.996929e-02	3.478782e-02	1.073626e-01	1.830699e-02	3.960603e-02	3.774428e-02	1.167865e-02	3.891305e-03	1.624726e-02	1.155502e-03	6.449231e-02	1.461067e-02	3.142067e-02	2.849367e-02	2.078732e-02	1.104736e-02	1.940861e-02	4.471328e-02	3.546541e-02	-7.856397e-02	-1.136912e-01	-5.473090e-02	-4.994766e-02	-1.013165e-01	-5.388988e-02	-9.593152e-02	-5.139911e-02	-1.074899e-01	-6.470587e-02	-6.222833e-02	-6.747485e-02	-5.225278e-02	-1.195832e-01	-7.077347e-02	-9.045029e-02	-8.883770e-02	-7.181139e-02	-9.029342e-02	-1.033430e-01	2.919285e-02	1.594640e-02	-9.591207e-02	-9.741082e-02	-1.200920e-01	-7.901056e-02	-1.355079e-01	-5.326851e-02	1.496216e-02	-1.295603e-01	-1.832454e-01	-1.578828e-01	-5.989756e-02	-3.968940e-02	-2.946779e-03	-6.052860e-03	-1.047324e-02	2.422969e-03	1.523957e-01	9.605976e-03	1.984582e-01	1.410267e-01	-6.170421e-02	2.370564e-02	9.600384e-02	4.188579e-02	-5.892528e-02	1.218306e-01	-6.241831e-04	2.039764e-02	-6.121198e-02	3.859900e-02	-8.408629e-02	4.067247e-02	4.322296e-02	1.035496e-02	4.643473e-02	5.049730e-02	5.777470e-02	4.820940e-03	6.087195e-02	6.872221e-02	8.706066e-02	1.376982e-02	3.341776e-02	3.413708e-02	1.674934e-01	2.118884e-02	2.161796e-02	2.210557e-02	3.652423e-03	1.970524e-02	2.006247e-02	1.854930e-02	6.951122e-03	5.268191e-02	5.506627e-02	1.420425e-02	1.226872e-02	2.433693e-02	2.628865e-02	7.373309e-02	7.972650e-02	3.207462e-02	3.279778e-02	1.280316e-02	1.331787e-02	2.493762e-02	2.563719e-02	7.904234e-03	8.791215e-03	4.829850e-05	1.883354e-02	1.909957e-02	1.532221e-02	1.564256e-02	1.651044e-02	1.678935e-02	1.780349e-02	1.803775e-02	1.703802e-02	-1.421056e-02	-1.257952e-03	-1.215025e-01	-9.798566e-02	-6.175444e-02	-6.243424e-02	-6.258096e-02	-6.246145e-02	-8.419649e-02	-7.459817e-02	-5.796433e-02	-6.222092e-02	-6.193698e-02	-5.965865e-02	-5.614176e-02	-6.456748e-02	-1.149600e-01	-1.177806e-01	-8.741526e-02	-8.587606e-02	-9.665726e-02	-9.840089e-02	-9.969236e-02	-4.981598e-02	-5.126229e-02	-5.188141e-02	-5.011350e-02	-4.977943e-02	-5.457129e-02	-5.078165e-02	-5.028103e-02	-4.964434e-02	-4.973425e-02	-5.037809e-02	-5.083248e-02	-5.245621e-02	-5.319888e-02	-5.550410e-02	-5.639045e-02	-6.047936e-02	-6.118774e-02	-5.722675e-02	-5.805739e-02	-9.168640e-02	-9.290409e-02	-9.407233e-02	-9.505945e-02	-1.070426e-01	-1.216248e-01	-1.203943e-01	3.619532e-02	3.691142e-02	2.260365e-02	2.315968e-02	-4.758352e-02	-1.178740e-01	-1.057261e-01	-1.085638e-01	-7.767286e-02	-8.153001e-02	-5.818665e-02	-5.911081e-02	-6.209271e-02	-5.987311e-02	2.703613e-02	2.772044e-02	5.923754e-03	3.528851e-03	1.730880e-02	5.713963e-05	1.696765e-02	1.520096e-02	3.198020e-02	2.044515e-02	4.675118e-02	-1.038284e-01	-9.539019e-02	-6.893787e-02	-4.124049e-02	-1.130279e-01	-2.344624e-01	-2.131357e-01	1.526310e-01	6.169356e-03	3.093576e-03	-1.253933e-02	1.063904e-02	4.894760e-02	1.048792e-01	-5.022873e-02	2.581077e-01	-1.454215e-03	2.760963e-02	9.248437e-04	2.831324e-02	2.008731e-03	3.871878e-02	-2.210323e-05	1.591257e-02	3.753407e-02	2.685836e-02	1.159730e-01	9.535415e-04	-8.232829e-02	-5.149813e-02	-6.266940e-02	-4.736071e-02	-1.255979e-01	-5.167494e-02	-6.501626e-02	-4.516363e-02	-7.693904e-02	-9.500573e-02	-2.335294e-01	2.687828e-03	-2.672497e-02	-8.772399e-02	-1.933306e-02	6.383301e-02	1.016190e-02	-8.891201e-03	1.286062e-02	1.828407e-02	4.143892e-03	-6.616733e-02	-4.623721e-02	-4.531911e-02	-4.692340e-02	-8.834427e-02	-6.561429e-02	-4.973571e-02	-4.872768e-02	-5.057159e-02	-6.158755e-02	-6.986722e-02	-8.448049e-02	2.542279e-02	2.615500e-02	1.386653e-02	-7.868000e-02	-7.789305e-02	-7.715443e-02	-1.439919e-01	-5.219504e-02	-3.386589e-02	-1.843803e-03	-4.722085e-03	5.133674e-03	2.308170e-01	2.588833e-01	6.821364e-02	9.483995e-02	-4.964598e-02	1.792980e-02	-5.228819e-02	3.545848e-02	3.642214e-02	4.000336e-02	4.142397e-02	9.030052e-03	9.621948e-03	4.295989e-02	4.477737e-02	5.676072e-02	6.004109e-02	8.646163e-02	3.044708e-02	3.129061e-02	1.310796e-01	1.869748e-02	1.906008e-02	1.724201e-02	1.759405e-02	6.041044e-03	5.132322e-02	5.386308e-02	1.222493e-02	1.254776e-02	2.099858e-02	2.153384e-02	7.330826e-02	7.936291e-02	2.908940e-02	2.981617e-02	1.108489e-02	1.150217e-02	1.189529e-02	2.214257e-02	2.273831e-02	6.889972e-03	7.672045e-03	8.396697e-03	1.613199e-02	1.641890e-02	1.665798e-02	1.312303e-02	1.338554e-02	1.365060e-02	1.412233e-02	1.431580e-02	1.544835e-02	1.565137e-02	1.456399e-02	-9.970003e-02	-5.198901e-02	-5.217167e-02	-7.276936e-02	-5.218898e-02	-5.213243e-02	-5.229777e-02	-5.137672e-02	-5.392419e-02	-9.716531e-02	-9.874700e-02	-6.724366e-02	-6.862540e-02	-7.915545e-02	-8.069842e-02	-8.240776e-02	-4.566872e-02	-5.232223e-02	-5.086175e-02	-4.794089e-02	-4.720041e-02	-4.666135e-02	-4.574174e-02	-4.564016e-02	-4.547276e-02	-4.535523e-02	-4.536867e-02	-4.551819e-02	-4.594054e-02	-4.620287e-02	-4.656597e-02	-4.779016e-02	-5.079524e-02	-5.112901e-02	-4.828080e-02	-4.872590e-02	-4.927581e-02	-7.100477e-02	-7.222566e-02	-7.356165e-02	-7.485532e-02	-7.600464e-02	-9.985392e-02	-9.909577e-02	3.283063e-02	3.367050e-02	3.449779e-02	1.947044e-02	1.998998e-02	-9.722625e-02	-9.370326e-02	-8.681298e-02	-8.949852e-02	-9.233601e-02	-5.660049e-02	-4.898525e-02	-4.543610e-02	-4.323970e-02	-6.012989e-02	-5.782019e-02	-5.581574e-02	2.339959e-02	2.404236e-02	2.474282e-02	1.476550e-02	1.500911e-02	-4.180667e-04	9.574089e-03	-1.100214e-01	-7.829254e-02	1.857129e-02	-1.307552e-02	1.602884e-01	4.503089e-02	4.730063e-02	5.398419e-03	-9.548189e-02	-4.434639e-02	9.023499e-04	-6.415393e-02	7.809834e-05	-6.313319e-02	-1.015741e-01	-2.461209e-02	-4.240154e-02	-3.034897e-02	-9.197269e-02	1.023765e-01	3.015189e-02	1.122933e-02	3.736895e-03	1.492775e-02	9.240058e-03	1.587171e-02	1.318534e-02	-8.335927e-02	-4.368399e-02	-6.032579e-02	-5.786092e-02	-4.161858e-02	-6.103221e-02	-4.960916e-02	8.920387e-02	-7.841127e-02	3.581614e-02	-1.497975e-01	-8.909993e-02	1.140209e-01	6.608309e-02	2.846303e-03	2.480481e-02	-8.256570e-04	2.530469e-02	2.631629e-02	1.918092e-03	9.683521e-02	1.083572e-03	-4.309813e-02	-4.469860e-02	-3.449256e-02	-1.879781e-02	-5.510549e-02	-4.175315e-02	-4.638339e-02	-3.106327e-02	-4.008171e-02	-4.542348e-02	2.339292e-02	2.386280e-02	-7.374650e-02	-4.531230e-02	-3.679114e-02	-1.400844e-04	-3.478716e-03	4.616503e-03	6.198866e-02	8.224931e-02	-4.316593e-02	3.365847e-02	3.462518e-02	3.699899e-02	3.832907e-02	8.408920e-03	8.844409e-03	3.969807e-02	4.129216e-02	4.314616e-02	5.513611e-02	5.835104e-02	2.852194e-02	2.911780e-02	1.042285e-01	1.629629e-02	1.672482e-02	1.516275e-02	1.556143e-02	4.971464e-02	5.224878e-02	1.074949e-02	1.092139e-02	1.888024e-02	7.077447e-02	7.617537e-02	2.690459e-02	2.756492e-02	9.911830e-03	1.017356e-02	1.052812e-02	1.961837e-02	1.997858e-02	6.113579e-03	6.778601e-03	7.404582e-03	7.946304e-03	1.382741e-02	1.409265e-02	1.433002e-02	1.462680e-02	1.136949e-02	1.162085e-02	1.178227e-02	1.200787e-02	1.216541e-02	1.361543e-02	1.337485e-02	1.238348e-02	-4.469751e-02	-6.977026e-02	-6.625863e-02	-4.481318e-02	-4.475199e-02	-4.481186e-02	-4.495009e-02	-4.466769e-02	-7.914845e-02	-7.944866e-02	-5.183486e-02	-5.339989e-02	-6.230884e-02	-6.406425e-02	-6.575345e-02	-6.779862e-02	-4.997592e-02	-4.858851e-02	-4.735789e-02	-4.545869e-02	-4.469914e-02	-4.396285e-02	-4.350702e-02	-4.241804e-02	-4.228142e-02	-4.216781e-02	-4.179936e-02	-4.137403e-02	-4.169132e-02	-4.133195e-02	-4.177192e-02	-4.146482e-02	-4.201649e-02	-4.397573e-02	-4.443165e-02	-4.216428e-02	-4.290071e-02	-4.268799e-02	-4.344474e-02	-5.414981e-02	-5.511566e-02	-5.608990e-02	-5.749300e-02	-5.874130e-02	-5.989052e-02	-7.955160e-02	-7.946588e-02	3.085900e-02	3.167873e-02	3.266437e-02	1.699358e-02	1.764151e-02	1.790839e-02	-7.859604e-02	-7.603829e-02	-7.124108e-02	-7.013545e-02	-7.274782e-02	-7.519869e-02	-7.711179e-02	-4.343896e-02	-4.064252e-02	-3.620529e-02	-3.176491e-02	-5.164867e-02	-5.556204e-02	-5.360239e-02	2.078062e-02	2.118612e-02	2.204273e-02	2.248599e-02	1.256016e-02	1.278615e-02	1.295888e-02	2.819985e-03	-9.634814e-02	5.927501e-02	-1.609840e-01	2.082056e-03	2.410304e-02	8.624897e-03	1.303563e-03	-6.948650e-02	3.122924e-04	4.991613e-03	9.799499e-03	-4.938398e-02	-4.550024e-02	-2.740747e-02	-1.344364e-02	-8.768203e-03	-7.288042e-03	-8.948327e-03	4.956197e-05	9.853996e-02	-2.189064e-02	6.288665e-02	8.137533e-02	4.575894e-02	2.813105e-02	1.324437e-02	-8.557121e-02	-4.840487e-02	-5.335710e-02	-3.926765e-02	-3.935335e-02	-3.810838e-02	-3.861650e-02	-3.916628e-02	1.661930e-02	-2.416405e-02	-8.149599e-02	8.367329e-03	-1.716841e-01	-7.312657e-02	-6.545320e-03	1.746963e-01	1.865725e-01	4.391020e-02	5.567312e-03	-1.331277e-03	-5.189230e-02	5.434509e-04	-5.776356e-02	-2.278942e-02	-3.389160e-02	3.490799e-02	3.576976e-03	1.190660e-02	1.155400e-02	-7.696165e-02	-3.848555e-02	-5.550501e-02	7.589690e-02	2.258268e-02	-1.819613e-02	-2.413465e-02	-2.791752e-02	-3.476527e-02	2.119522e-02	-3.877414e-02	-3.262888e-02	-3.415431e-03	4.299972e-03	3.232451e-02	3.352359e-02	3.452705e-02	3.592907e-02	8.082968e-03	7.793300e-03	3.704861e-02	3.861233e-02	3.994486e-02	4.167807e-02	5.304821e-02	5.601643e-02	2.642861e-02	8.620070e-02	1.440006e-02	1.467231e-02	1.369365e-02	1.386075e-02	4.795818e-02	5.035703e-02	9.409263e-03	9.724686e-03	6.688987e-02	7.125531e-02	2.506429e-02	8.783025e-03	9.147340e-03	9.360450e-03	1.759786e-02	6.092161e-03	6.610824e-03	7.054787e-03	7.470061e-03	1.196968e-02	1.234357e-02	1.242552e-02	1.285010e-02	1.303245e-02	1.009037e-02	1.012683e-02	1.042413e-02	1.045330e-02	1.075656e-02	-6.613431e-02	-6.307217e-02	-6.030727e-02	-3.993707e-02	-3.942664e-02	-3.987208e-02	-3.942842e-02	-3.996260e-02	-6.221525e-02	-6.175591e-02	-3.754448e-02	-4.169644e-02	-5.206414e-02	-5.291226e-02	-5.471823e-02	-4.674169e-02	-4.574139e-02	-4.455092e-02	-4.384699e-02	-4.279740e-02	-4.220463e-02	-4.136636e-02	-4.064946e-02	-3.968341e-02	-3.931316e-02	-3.823476e-02	-3.803802e-02	-3.800698e-02	-3.834498e-02	-3.859171e-02	-4.196383e-02	-4.374571e-02	-4.342858e-02	-4.532312e-02	-4.553167e-02	-4.656724e-02	-4.796827e-02	-6.174584e-02	-6.228324e-02	2.931689e-02	3.045031e-02	3.130292e-02	1.500673e-02	1.572819e-02	-6.243197e-02	-6.081806e-02	-5.712080e-02	-5.688824e-02	-5.917939e-02	-6.112825e-02	-6.215463e-02	-6.230999e-02	-3.904246e-02	-3.823423e-02	-3.512957e-02	-2.951799e-02	-5.145956e-02	-4.986400e-02	1.870103e-02	1.990216e-02	1.080251e-02	1.113361e-02	1.117269e-02	1.150214e-02	1.889066e-01	-1.743813e-01	2.347474e-03	-9.691543e-03	8.453712e-02	5.853672e-02	-7.007937e-02	-1.760595e-02	-5.473955e-02	9.685071e-02	6.486254e-02	-4.151372e-03	5.255017e-03	3.006567e-03	-2.229734e-02	-8.294386e-02	-3.294187e-02	-2.113166e-02	3.608511e-03	5.563009e-02	1.428996e-02	-6.695036e-02	1.043890e-02	4.395061e-02	4.145750e-02	1.724852e-02	7.734450e-03	8.803024e-03	5.004561e-04	1.212621e-02	7.412709e-03	7.619219e-03	-4.383869e-02	-6.165331e-02	-4.596785e-02	-1.403380e-02	-3.744754e-02	5.288550e-02	-1.594613e-01	-6.418110e-02	-7.822260e-03	-2.014849e-03	6.859737e-02	2.247430e-02	-3.482527e-02	-3.553159e-02	-7.372035e-02	-1.414694e-03	-9.488228e-02	-5.463954e-03	1.742773e-01	5.639293e-03	1.515084e-03	1.803608e-03	-3.464971e-02	4.753572e-03	-5.282111e-02	-5.110183e-02	-3.474440e-02	-1.737947e-02	-2.289731e-02	2.116774e-02	-2.867861e-02	-2.474287e-02	4.193769e-03	3.175488e-02	3.414114e-02	7.180013e-03	3.673967e-02	3.874314e-02	5.034069e-02	7.289183e-02	1.278064e-02	4.587076e-02	4.800956e-02	8.507473e-03	6.155371e-02	2.361064e-02	2.511511e-02	8.096140e-03	8.280941e-03	1.515816e-02	6.030271e-03	6.347857e-03	6.722904e-03	6.993147e-03	1.084506e-02	1.135319e-02	1.162800e-02	9.075280e-03	9.372817e-03	-5.918903e-02	-5.688279e-02	-3.566289e-02	-3.562643e-02	-4.767070e-02	-3.075509e-02	-4.568502e-02	-3.675329e-02	-4.359008e-02	-4.164890e-02	-3.996838e-02	-3.850060e-02	-3.749277e-02	-3.594657e-02	-3.522849e-02	-3.473942e-02	-3.443360e-02	-3.426956e-02	-3.424265e-02	-3.428482e-02	-3.434886e-02	-3.475974e-02	-3.646132e-02	-3.698965e-02	-3.911707e-02	-4.021590e-02	-4.741747e-02	-4.844432e-02	2.672290e-02	2.858124e-02	2.993653e-02	1.317009e-02	1.356326e-02	-4.925931e-02	-4.837434e-02	-4.553612e-02	-4.176213e-02	-4.751354e-02	-4.912156e-02	-5.026378e-02	-5.031455e-02	-4.932240e-02	-4.995562e-02	-3.427145e-02	-3.012681e-02	-4.977061e-02	-4.789281e-02	1.615399e-02	1.844260e-02	1.974786e-02	9.713660e-03	1.006273e-02	-7.516629e-02	1.557190e-01	1.540345e-01	-1.035531e-01	6.223973e-03	-6.501438e-02	-4.357716e-02	8.601922e-02	2.805966e-03	4.253667e-03	1.068279e-01	7.460649e-02	-2.500265e-02	-1.422895e-02	-5.152626e-03	-5.283885e-02	2.134211e-02	-2.486445e-02	-8.536032e-02	3.551768e-02	5.069358e-03	-3.852490e-02	-2.788635e-02	3.251371e-03	1.055233e-02	4.181204e-02	1.649358e-02	1.350000e-02	5.111305e-02	5.337081e-02	5.390777e-03	5.674467e-03	-1.182290e-01	-5.879316e-02	-6.110224e-02	-4.965624e-02	-1.222391e-02	-3.162363e-02	1.895355e-02	6.641154e-03	-1.442622e-01	-1.452455e-01	-7.618348e-03	4.893613e-02	-5.118669e-02	4.182493e-02	5.584702e-02	-1.681487e-02	3.807497e-03	1.271814e-02	-1.782167e-03	6.750954e-03	6.843314e-03	-5.663757e-02	-1.072941e-02	4.695955e-02	5.849928e-02	2.020126e-02	-5.553773e-03	1.239780e-01	6.452677e-03	1.809678e-03	2.747970e-03	-3.178873e-02	4.671895e-03	-4.831967e-02	-3.174110e-02	-1.663677e-02	-3.161113e-02	-2.215956e-02	-1.946594e-02	3.065717e-02	3.315188e-02	3.773841e-02	4.008355e-02	6.295108e-02	1.109935e-02	4.340969e-02	4.510617e-02	1.017461e-02	2.558198e-02	2.713081e-02	2.257813e-02	6.909376e-03	7.138211e-03	7.224612e-03	5.911424e-03	9.243457e-03	9.706611e-03	7.378760e-03	7.593958e-03	1.767589e-02	-5.468749e-02	-3.189943e-02	-3.201272e-02	-3.912340e-02	-4.205749e-02	-3.994379e-02	-3.468568e-02	-3.807991e-02	-3.659589e-02	-3.550392e-02	-3.397511e-02	-3.328411e-02	-3.269163e-02	-3.226288e-02	-3.196959e-02	-3.177573e-02	-3.167597e-02	-1.625584e-02	-2.315950e-02	-2.735308e-02	-2.955806e-0