# vtk DataFile Version 3.0
vtk output
ASCII
DATASET UNSTRUCTURED_GRID
POINTS 5233 float
9.997500e-01	-3.632909e-05	0.0	9.990000e-01	-1.452618e-04	0.0	9.977600e-01	-3.252008e-04	0.0	9.960200e-01	-5.774943e-04	0.0	9.937800e-01	-9.022942e-04	0.0	9.910500e-01	-1.298763e-03	0.0	9.878400e-01	-1.766726e-03	0.0	9.841300e-01	-2.311194e-03	0.0	9.799500e-01	-2.930640e-03	0.0	9.752800e-01	-3.631444e-03	0.0	9.701500e-01	-4.412625e-03	0.0	9.645400e-01	-5.280292e-03	0.0	9.584700e-01	-6.233365e-03	0.0	9.519400e-01	-7.272227e-03	0.0	9.449600e-01	-8.393908e-03	0.0	9.375400e-01	-9.593773e-03	0.0	9.296900e-01	-1.086609e-02	0.0	9.214000e-01	-1.220804e-02	0.0	9.127000e-01	-1.361074e-02	0.0	9.035800e-01	-1.507272e-02	0.0	8.940600e-01	-1.658877e-02	0.0	8.841500e-01	-1.815610e-02	0.0	8.738500e-01	-1.977361e-02	0.0	8.631800e-01	-2.143627e-02	0.0	8.521600e-01	-2.313752e-02	0.0	8.407700e-01	-2.487471e-02	0.0	8.290500e-01	-2.663345e-02	0.0	8.170100e-01	-2.840162e-02	0.0	8.046400e-01	-3.016792e-02	0.0	7.919700e-01	-3.191393e-02	0.0	7.790100e-01	-3.362378e-02	0.0	7.657800e-01	-3.528073e-02	0.0	7.522800e-01	-3.687177e-02	0.0	7.385200e-01	-3.838440e-02	0.0	7.245300e-01	-3.980643e-02	0.0	7.103200e-01	-4.113073e-02	0.0	6.958900e-01	-4.235375e-02	0.0	6.812700e-01	-4.347212e-02	0.0	6.664700e-01	-4.448693e-02	0.0	6.515000e-01	-4.540154e-02	0.0	6.363800e-01	-4.622067e-02	0.0	6.211300e-01	-4.695082e-02	0.0	6.057600e-01	-4.760016e-02	0.0	5.902800e-01	-4.817747e-02	0.0	5.747100e-01	-4.869148e-02	0.0	5.590600e-01	-4.915119e-02	0.0	5.433600e-01	-4.956464e-02	0.0	5.276100e-01	-4.993996e-02	0.0	5.118400e-01	-5.028359e-02	0.0	4.960500e-01	-5.060149e-02	0.0	4.802700e-01	-5.089775e-02	0.0	4.645100e-01	-5.117554e-02	0.0	4.487800e-01	-5.143670e-02	0.0	4.331100e-01	-5.168146e-02	0.0	4.175000e-01	-5.190932e-02	0.0	4.019700e-01	-5.211839e-02	0.0	3.865400e-01	-5.230586e-02	0.0	3.712300e-01	-5.246816e-02	0.0	3.560400e-01	-5.260130e-02	0.0	3.409900e-01	-5.270061e-02	0.0	3.261100e-01	-5.276113e-02	0.0	3.114000e-01	-5.277790e-02	0.0	2.968700e-01	-5.274582e-02	0.0	2.825500e-01	-5.265996e-02	0.0	2.684500e-01	-5.251559e-02	0.0	2.545700e-01	-5.230801e-02	0.0	2.409400e-01	-5.203324e-02	0.0	2.275700e-01	-5.168749e-02	0.0	2.144700e-01	-5.126729e-02	0.0	2.016600e-01	-5.076993e-02	0.0	1.891400e-01	-5.019238e-02	0.0	1.769300e-01	-4.953284e-02	0.0	1.650400e-01	-4.878952e-02	0.0	1.534900e-01	-4.796177e-02	0.0	1.422900e-01	-4.704883e-02	0.0	1.314400e-01	-4.604934e-02	0.0	1.209500e-01	-4.496296e-02	0.0	1.108500e-01	-4.379208e-02	0.0	1.011300e-01	-4.253503e-02	0.0	9.181000e-02	-4.119389e-02	0.0	8.290000e-02	-3.976997e-02	0.0	7.440000e-02	-3.826304e-02	0.0	6.633000e-02	-3.667657e-02	0.0	5.869000e-02	-3.501058e-02	0.0	5.149000e-02	-3.326708e-02	0.0	4.474000e-02	-3.144844e-02	0.0	3.844000e-02	-2.955433e-02	0.0	3.260000e-02	-2.758711e-02	0.0	2.723000e-02	-2.554977e-02	0.0	2.232000e-02	-2.343708e-02	0.0	1.790000e-02	-2.126113e-02	0.0	1.395000e-02	-1.901092e-02	0.0	1.049000e-02	-1.669561e-02	0.0	7.520000e-03	-1.431461e-02	0.0	5.040000e-03	-1.186637e-02	0.0	3.050000e-03	-9.347302e-03	0.0	1.560000e-03	-6.769269e-03	0.0	5.600000e-04	-4.108233e-03	0.0	6.000000e-05	-1.363608e-03	0.0	0.000000e+00	0.000000e+00	0.0	6.000000e-05	1.350236e-03	0.0	5.600000e-04	4.050826e-03	0.0	1.560000e-03	6.663226e-03	0.0	3.050000e-03	9.195473e-03	0.0	5.040000e-03	1.167583e-02	0.0	7.520000e-03	1.409653e-02	0.0	1.049000e-02	1.646478e-02	0.0	1.395000e-02	1.878581e-02	0.0	1.790000e-02	2.106403e-02	0.0	2.232000e-02	2.329392e-02	0.0	2.723000e-02	2.549065e-02	0.0	3.260000e-02	2.764558e-02	0.0	3.844000e-02	2.976800e-02	0.0	4.474000e-02	3.185849e-02	0.0	5.149000e-02	3.391797e-02	0.0	5.869000e-02	3.595015e-02	0.0	6.633000e-02	3.795531e-02	0.0	7.440000e-02	3.993367e-02	0.0	8.290000e-02	4.188739e-02	0.0	9.181000e-02	4.381361e-02	0.0	1.011300e-01	4.571359e-02	0.0	1.108500e-01	4.758588e-02	0.0	1.209500e-01	4.942683e-02	0.0	1.314400e-01	5.123782e-02	0.0	1.422900e-01	5.301272e-02	0.0	1.534900e-01	5.474871e-02	0.0	1.650400e-01	5.644398e-02	0.0	1.769300e-01	5.809472e-02	0.0	1.891400e-01	5.969553e-02	0.0	2.016600e-01	6.124223e-02	0.0	2.144700e-01	6.272926e-02	0.0	2.275700e-01	6.415328e-02	0.0	2.409400e-01	6.550849e-02	0.0	2.545700e-01	6.679020e-02	0.0	2.684500e-01	6.799357e-02	0.0	2.825500e-01	6.911218e-02	0.0	2.968700e-01	7.014214e-02	0.0	3.114000e-01	7.107860e-02	0.0	3.261100e-01	7.191555e-02	0.0	3.409900e-01	7.264840e-02	0.0	3.560400e-01	7.327286e-02	0.0	3.712300e-01	7.378330e-02	0.0	3.865400e-01	7.417483e-02	0.0	4.019700e-01	7.444303e-02	0.0	4.175000e-01	7.458295e-02	0.0	4.331100e-01	7.458992e-02	0.0	4.487800e-01	7.445955e-02	0.0	4.645100e-01	7.418745e-02	0.0	4.802700e-01	7.376991e-02	0.0	4.960500e-01	7.320341e-02	0.0	5.118400e-01	7.248482e-02	0.0	5.276100e-01	7.161270e-02	0.0	5.433600e-01	7.058503e-02	0.0	5.590600e-01	6.940265e-02	0.0	5.747100e-01	6.806549e-02	0.0	5.902800e-01	6.657731e-02	0.0	6.057600e-01	6.494175e-02	0.0	6.211300e-01	6.316504e-02	0.0	6.363800e-01	6.125402e-02	0.0	6.515000e-01	5.921698e-02	0.0	6.664700e-01	5.706516e-02	0.0	6.812700e-01	5.481151e-02	0.0	6.958900e-01	5.246892e-02	0.0	7.103200e-01	5.005129e-02	0.0	7.245300e-01	4.757686e-02	0.0	7.385200e-01	4.505941e-02	0.0	7.522800e-01	4.251466e-02	0.0	7.657800e-01	3.996213e-02	0.0	7.790100e-01	3.741749e-02	0.0	7.919700e-01	3.489399e-02	0.0	8.046400e-01	3.240819e-02	0.0	8.170100e-01	2.997405e-02	0.0	8.290500e-01	2.760884e-02	0.0	8.407700e-01	2.532127e-02	0.0	8.521600e-01	2.312328e-02	0.0	8.631800e-01	2.103157e-02	0.0	8.738500e-01	1.905016e-02	0.0	8.841500e-01	1.718895e-02	0.0	8.940600e-01	1.545535e-02	0.0	9.035800e-01	1.385019e-02	0.0	9.127000e-01	1.237271e-02	0.0	9.214000e-01	1.102010e-02	0.0	9.296900e-01	9.781662e-03	0.0	9.375400e-01	8.650401e-03	0.0	9.449600e-01	7.612208e-03	0.0	9.519400e-01	6.656126e-03	0.0	9.584700e-01	5.772587e-03	0.0	9.645400e-01	4.954359e-03	0.0	9.701500e-01	4.195689e-03	0.0	9.752800e-01	3.496291e-03	0.0	9.799500e-01	2.852720e-03	0.0	9.841300e-01	2.270023e-03	0.0	9.878400e-01	1.747228e-03	0.0	9.910500e-01	1.290667e-03	0.0	9.937800e-01	8.994899e-04	0.0	9.960200e-01	5.767420e-04	0.0	9.977600e-01	3.250644e-04	0.0	9.990000e-01	1.452495e-04	0.0	9.997500e-01	3.632890e-05	0.0	1.000000e+00	0.000000e+00	0.0	1.984229e+01	2.506660e+00	0.0	1.937166e+01	4.973800e+00	0.0	1.859553e+01	7.362490e+00	0.0	1.752613e+01	9.635070e+00	0.0	1.618034e+01	1.175571e+01	0.0	1.457937e+01	1.369094e+01	0.0	1.274848e+01	1.541027e+01	0.0	1.071654e+01	1.688656e+01	0.0	8.515590e+00	1.809654e+01	0.0	6.180340e+00	1.902113e+01	0.0	3.747630e+00	1.964575e+01	0.0	1.255810e+00	1.996053e+01	0.0	-1.255810e+00	1.996053e+01	0.0	-3.747630e+00	1.964574e+01	0.0	-6.180340e+00	1.902113e+01	0.0	-8.515590e+00	1.809654e+01	0.0	-1.071654e+01	1.688656e+01	0.0	-1.274848e+01	1.541026e+01	0.0	-1.457937e+01	1.369094e+01	0.0	-1.618034e+01	1.175570e+01	0.0	-1.752613e+01	9.635070e+00	0.0	-1.859553e+01	7.362490e+00	0.0	-1.937166e+01	4.973800e+00	0.0	-1.984229e+01	2.506660e+00	0.0	-2.000000e+01	0.000000e+00	0.0	-1.984229e+01	-2.506670e+00	0.0	-1.937166e+01	-4.973800e+00	0.0	-1.859553e+01	-7.362490e+00	0.0	-1.752613e+01	-9.635080e+00	0.0	-1.618034e+01	-1.175571e+01	0.0	-1.457937e+01	-1.369094e+01	0.0	-1.274848e+01	-1.541027e+01	0.0	-1.071653e+01	-1.688656e+01	0.0	-8.515580e+00	-1.809654e+01	0.0	-6.180340e+00	-1.902113e+01	0.0	-3.747620e+00	-1.964575e+01	0.0	-1.255810e+00	-1.996053e+01	0.0	1.255810e+00	-1.996053e+01	0.0	3.747630e+00	-1.964574e+01	0.0	6.180340e+00	-1.902113e+01	0.0	8.515590e+00	-1.809654e+01	0.0	1.071654e+01	-1.688656e+01	0.0	1.274848e+01	-1.541026e+01	0.0	1.457937e+01	-1.369094e+01	0.0	1.618034e+01	-1.175570e+01	0.0	1.752614e+01	-9.635070e+00	0.0	1.859553e+01	-7.362490e+00	0.0	1.937166e+01	-4.973790e+00	0.0	1.984229e+01	-2.506660e+00	0.0	2.000000e+01	0.000000e+00	0.0	6.093892e-02	-4.285144e-02	0.0	6.600410e-01	-5.844939e-02	0.0	4.255297e-01	8.863687e-02	0.0	6.904536e-01	6.677179e-02	0.0	3.791252e-01	-6.656260e-02	0.0	9.994589e-01	-7.258723e-04	0.0	9.985402e-01	-1.320872e-03	0.0	7.738251e-01	-4.634860e-02	0.0	6.897588e-01	-5.606349e-02	0.0	-1.367138e-03	6.233161e-03	0.0	7.467650e-01	-4.997311e-02	0.0	5.838090e-01	8.122916e-02	0.0	9.927651e-01	-3.598793e-03	0.0	9.898616e-01	-4.480982e-03	0.0	5.994275e-01	7.958836e-02	0.0	7.187102e-01	-5.322760e-02	0.0	-1.548094e-03	7.305687e-04	0.0	9.864673e-01	-5.441292e-03	0.0	9.825916e-01	-6.470515e-03	0.0	-1.358171e-03	-6.336027e-03	0.0	6.449375e-01	-5.947833e-02	0.0	8.244939e-01	-3.842106e-02	0.0	7.997632e-01	-4.246746e-02	0.0	3.482204e-01	8.660152e-02	0.0	8.478910e-01	-3.434813e-02	0.0	2.468390e-01	7.862192e-02	0.0	8.698983e-01	-3.032503e-02	0.0	1.001408e-02	2.079824e-02	0.0	8.904116e-01	-2.642047e-02	0.0	7.722818e-02	-4.682321e-02	0.0	9.093595e-01	-2.267674e-02	0.0	-1.865007e-03	-3.138557e-03	0.0	9.422484e-01	-1.580904e-02	0.0	9.266631e-01	-1.912583e-02	0.0	1.806769e-02	-2.637803e-02	0.0	4.256782e-01	-6.623083e-02	0.0	8.590773e-01	-3.232303e-02	0.0	9.560748e-01	-1.276843e-02	0.0	9.782290e-01	-7.589010e-03	0.0	9.680882e-01	-1.002215e-02	0.0	1.584746e-01	-5.900398e-02	0.0	9.000881e-01	-2.452666e-02	0.0	7.604299e-01	-4.820093e-02	0.0	9.971132e-01	-2.058079e-03	0.0	5.988429e-01	-6.197001e-02	0.0	4.413590e-01	-6.604490e-02	0.0	5.361230e-01	-6.418097e-02	0.0	4.728882e-01	-6.557080e-02	0.0	5.045102e-01	-6.495629e-02	0.0	4.886866e-01	-6.528085e-02	0.0	1.251652e-01	-5.514410e-02	0.0	2.799454e-02	-3.148915e-02	0.0	3.945492e-01	-6.649285e-02	0.0	4.640172e-02	-3.855324e-02	0.0	4.100682e-01	-6.638196e-02	0.0	3.187978e-01	-6.636792e-02	0.0	3.486567e-01	-6.657206e-02	0.0	3.367005e-02	-3.391128e-02	0.0	2.896281e-01	-6.592628e-02	0.0	9.346743e-01	-1.743395e-02	0.0	1.470184e-01	-5.780948e-02	0.0	1.948400e-01	-6.200962e-02	0.0	8.600599e-02	-4.867547e-02	0.0	1.048018e-01	-5.210645e-02	0.0	5.676108e-01	-6.321237e-02	0.0	1.702734e-01	-6.010386e-02	0.0	6.143295e-01	-6.122907e-02	0.0	8.803501e-01	-2.835590e-02	0.0	2.280418e-02	-2.897635e-02	0.0	9.951875e-01	-2.803889e-03	0.0	6.796488e-03	-1.820110e-02	0.0	1.798544e-02	2.626178e-02	0.0	9.182203e-01	-2.087471e-02	0.0	9.49388
[...]
POINT_DATA 5233

SCALARS Conservative_1 float 1
LOOKUP_TABLE default
4.329741e-01	2.190935e-01	1.797241e-01	1.501235e-01	1.307805e-01	1.159495e-01	1.041285e-01	9.452834e-02	8.664929e-02	8.011151e-02	7.463500e-02	7.001925e-02	6.608281e-02	6.271608e-02	5.980922e-02	5.728519e-02	5.508026e-02	5.301942e-02	5.108292e-02	4.931725e-02	4.789147e-02	4.669402e-02	4.571365e-02	4.491882e-02	4.422733e-02	4.370380e-02	4.322891e-02	4.288521e-02	4.254462e-02	4.225103e-02	4.197343e-02	4.161282e-02	4.128789e-02	4.079909e-02	4.031492e-02	3.967415e-02	3.903100e-02	3.824367e-02	3.747469e-02	3.658803e-02	3.574578e-02	3.481871e-02	3.396259e-02	3.305093e-02	3.222646e-02	3.137746e-02	3.061341e-02	2.985821e-02	2.917042e-02	2.851487e-02	2.791556e-02	2.734898e-02	2.681274e-02	2.633626e-02	2.586485e-02	2.545919e-02	2.504914e-02	2.469119e-02	2.432100e-02	2.399287e-02	2.364466e-02	2.333127e-02	2.298676e-02	2.266959e-02	2.231427e-02	2.197723e-02	2.159641e-02	2.122513e-02	2.081014e-02	2.038530e-02	1.992879e-02	1.943892e-02	1.892937e-02	1.837175e-02	1.778707e-02	1.716494e-02	1.649102e-02	1.578307e-02	1.502039e-02	1.421338e-02	1.334675e-02	1.242622e-02	1.144266e-02	1.039397e-02	9.272736e-03	8.079028e-03	6.803165e-03	5.443992e-03	4.006127e-03	2.475689e-03	9.065766e-04	-5.399496e-04	-2.421190e-03	-4.831989e-03	-1.964623e-03	6.507187e-03	8.133097e-03	2.458599e-03	-4.888633e-03	-1.172852e-02	-1.805608e-02	-3.188207e-02	-5.237087e-02	-6.923814e-02	-8.443776e-02	-1.074117e-01	-1.344638e-01	-1.531320e-01	-1.612086e-01	-1.641514e-01	-1.656558e-01	-1.662053e-01	-1.655614e-01	-1.634586e-01	-1.602698e-01	-1.564863e-01	-1.525799e-01	-1.488616e-01	-1.456271e-01	-1.429315e-01	-1.407265e-01	-1.391191e-01	-1.381485e-01	-1.377873e-01	-1.376695e-01	-1.375022e-01	-1.371999e-01	-1.367920e-01	-1.363135e-01	-1.357694e-01	-1.349563e-01	-1.339992e-01	-1.329181e-01	-1.319450e-01	-1.312351e-01	-1.304847e-01	-1.292704e-01	-1.268013e-01	-1.227828e-01	-1.161701e-01	-1.056016e-01	-9.274670e-02	-8.373542e-02	-8.111677e-02	-8.280625e-02	-8.535416e-02	-8.722219e-02	-8.835811e-02	-8.896195e-02	-8.919687e-02	-8.894252e-02	-8.837998e-02	-8.739462e-02	-8.618572e-02	-8.481463e-02	-8.319952e-02	-8.159808e-02	-7.979706e-02	-7.797742e-02	-7.613314e-02	-7.421571e-02	-7.239556e-02	-7.050964e-02	-6.878627e-02	-6.702561e-02	-6.545890e-02	-6.388523e-02	-6.252746e-02	-6.118451e-02	-6.006911e-02	-5.898367e-02	-5.814048e-02	-5.731868e-02	-5.676105e-02	-5.631320e-02	-5.606335e-02	-5.604596e-02	-5.624769e-02	-5.679745e-02	-5.762014e-02	-5.897890e-02	-6.065543e-02	-6.261418e-02	-6.478060e-02	-6.736514e-02	-7.029801e-02	-7.367482e-02	-7.745360e-02	-8.173640e-02	-8.658210e-02	-9.215684e-02	-9.862732e-02	-1.062725e-01	-1.153990e-01	-1.264731e-01	-1.401218e-01	-1.608923e-01	-1.801412e-01	-3.442336e-01	3.388580e-02	-1.214397e-04	-1.326389e-04	-1.430717e-04	-1.518894e-04	-1.626311e-04	-1.705721e-04	-1.792623e-04	-1.816877e-04	-1.745914e-04	-1.719439e-04	-1.768699e-04	-1.774483e-04	-1.787821e-04	-1.693377e-04	-1.491331e-04	-1.395327e-04	-1.198869e-04	-1.058914e-04	-9.073368e-05	-7.091877e-05	-4.328094e-05	-2.722407e-05	3.473264e-05	1.855230e-04	1.369677e-04	1.613152e-04	2.255138e-04	2.317473e-04	1.411052e-04	1.748192e-04	2.034809e-04	2.180917e-04	2.297007e-04	2.312459e-04	2.299320e-04	2.177381e-04	1.819037e-04	1.501934e-04	9.064068e-05	6.603615e-05	5.364828e-05	3.197968e-05	1.007930e-05	-1.255259e-05	-3.370576e-05	-5.236230e-05	-6.843965e-05	-8.386706e-05	-9.740154e-05	-1.101118e-04	1.002350e-02	3.277953e-02	-7.271701e-02	-6.206027e-02	2.199966e-02	3.384380e-01	2.427414e-01	3.798977e-02	3.430627e-02	-3.247013e-02	3.690990e-02	-7.110128e-02	1.289524e-01	1.128571e-01	-6.986973e-02	3.569713e-02	-1.373110e-02	1.006845e-01	9.117222e-02	4.036174e-03	3.200537e-02	4.014565e-02	3.901763e-02	-8.454307e-02	4.154151e-02	-1.093186e-01	4.337563e-02	-1.141651e-01	4.589064e-02	1.176418e-02	4.940635e-02	-1.915987e-03	5.791093e-02	5.336665e-02	1.655785e-03	2.307993e-02	4.238187e-02	6.387638e-02	8.350989e-02	7.201122e-02	1.668681e-02	4.752269e-02	3.749038e-02	1.844921e-01	2.960753e-02	2.350387e-02	2.673867e-02	2.443163e-02	2.551467e-02	2.496068e-02	1.515819e-02	4.418751e-03	2.233119e-02	8.009441e-03	2.270436e-02	2.078073e-02	2.136765e-02	5.694371e-03	2.020658e-02	5.551721e-02	1.621791e-02	1.794227e-02	1.254212e-02	1.394281e-02	2.810841e-02	1.713745e-02	3.041024e-02	4.452272e-02	3.075393e-03	1.513015e-01	-3.048946e-03	-1.352643e-01	5.137999e-02	6.066932e-02	7.722704e-02	-4.640575e-02	4.078146e-02	1.930503e-02	2.741662e-02	3.634275e-02	3.851090e-02	1.457385e-02	1.865839e-02	2.886061e-02	3.357579e-02	9.050454e-03	-3.589220e-03	2.887863e-04	2.166748e-02	1.755074e-02	4.586000e-01	1.899664e-02	1.327006e-02	2.048334e-02	1.962114e-02	2.394767e-02	3.504248e-02	-2.038023e-02	6.525385e-03	-7.413501e-02	-8.464607e-03	-1.417178e-01	-1.383147e-01	-1.427879e-01	-1.190311e-01	-7.153169e-02	-1.696480e-01	-7.479209e-02	-7.516583e-02	-8.350588e-02	-7.477099e-02	-5.494643e-02	-7.533505e-02	-7.383797e-02	-7.145515e-02	-6.094306e-02	-5.753945e-02	-1.280940e-01	-8.893366e-02	-7.118410e-02	-6.531199e-02	-1.226010e-01	-1.350075e-01	-1.053452e-01	-1.079817e-01	-1.158183e-01	-9.973890e-02	-7.465605e-02	-7.076881e-02	-1.169462e-01	-1.180121e-01	-6.731254e-02	-1.143223e-01	-1.121400e-01	-6.465626e-02	-7.219270e-02	-5.754988e-02	-5.966090e-02	-5.447852e-02	-5.580967e-02	-5.329881e-02	-5.363970e-02	-5.609164e-02	-5.363682e-02	-6.806010e-02	-5.918374e-02	-7.883518e-02	-5.337988e-02	-5.415490e-02	-5.396475e-02	-5.336947e-02	-5.660398e-02	-5.506428e-02	-6.080200e-02	-5.853650e-02	-6.596918e-02	-6.331644e-02	-7.324382e-02	-6.862664e-02	-1.133678e-01	-1.107416e-01	-1.164400e-01	-1.151273e-01	-1.410850e-01	-1.173985e-01	-1.284203e-01	-1.429840e-01	1.831525e-02	-6.957054e-02	6.761102e-02	3.954566e-02	2.106152e-02	2.611277e-02	-5.688944e-02	-1.391675e-01	-9.135904e-02	-1.251000e-01	-1.314973e-01	-1.067581e-01	-1.205595e-01	-9.538824e-02	-1.032004e-01	-1.033031e-01	-1.130476e-01	-1.258959e-01	-9.353850e-02	-7.554467e-02	-6.299367e-02	-3.991472e-01	-2.155016e-01	-2.884140e-01	3.118723e-02	6.890907e-03	-1.435764e-01	-7.523280e-02	1.668994e-03	-1.019194e-03	1.092435e-02	1.570776e-02	1.990790e-02	-1.112533e-01	-2.999824e-02	-2.054655e-02	1.747129e-02	3.056805e-02	4.824149e-02	-1.322613e-03	-5.937914e-02	2.987810e-02	3.468710e-02	1.070447e-01	1.823669e-02	3.949560e-02	3.763788e-02	1.161712e-02	3.872797e-03	1.617730e-02	1.127327e-03	6.431216e-02	1.454270e-02	3.132636e-02	2.840585e-02	2.071541e-02	1.098748e-02	1.933800e-02	4.458988e-02	3.536353e-02	-7.837971e-02	-1.133802e-01	-5.451006e-02	-4.977683e-02	-1.009101e-01	-5.367495e-02	-9.550620e-02	-5.123000e-02	-1.072797e-01	-6.292207e-02	-6.198503e-02	-6.728967e-02	-5.208306e-02	-1.193681e-01	-7.058506e-02	-9.024729e-02	-8.810125e-02	-6.993008e-02	-8.960617e-02	-1.029145e-01	2.910347e-02	1.587673e-02	-9.570662e-02	-9.702083e-02	-1.195908e-01	-7.881489e-02	-1.352892e-01	-5.309785e-02	1.489367e-02	-1.294911e-01	-1.830134e-01	-1.576532e-01	-5.970333e-02	-3.955034e-02	-2.959886e-03	-6.043689e-03	-1.045192e-02	2.390067e-03	1.518448e-01	9.550129e-03	1.978306e-01	1.405955e-01	-6.148528e-02	2.362865e-02	9.572357e-02	4.176970e-02	-5.867592e-02	1.214650e-01	-6.332755e-04	2.032619e-02	-6.106480e-02	3.849078e-02	-8.312391e-02	4.055947e-02	4.310344e-02	1.029700e-02	4.630654e-02	5.035790e-02	5.761455e-02	4.780035e-03	6.070270e-02	6.852913e-02	8.680970e-02	1.370341e-02	3.331958e-02	3.403746e-02	1.669748e-01	2.111643e-02	2.154489e-02	2.203166e-02	3.615441e-03	1.963450e-02	1.999133e-02	1.847898e-02	6.903345e-03	5.253632e-02	5.491398e-02	1.413699e-02	1.220572e-02	2.425859e-02	2.620591e-02	7.352439e-02	7.949886e-02	3.197898e-02	3.270075e-02	1.273888e-02	1.325239e-02	2.485792e-02	2.555592e-02	7.853505e-03	8.737817e-03	2.502722e-05	1.876308e-02	1.902911e-02	1.525320e-02	1.557317e-02	1.644039e-02	1.671915e-02	1.773317e-02	1.796755e-02	1.696780e-02	-1.417551e-02	-1.253694e-03	-1.210333e-01	-9.777882e-02	-6.150394e-02	-6.220705e-02	-6.238189e-02	-6.228910e-02	-8.399726e-02	-7.440612e-02	-5.778878e-02	-6.204245e-02	-6.172621e-02	-5.972693e-02	-5.596825e-02	-6.438543e-02	-1.144357e-01	-1.172595e-01	-8.663008e-02	-8.502792e-02	-9.625542e-02	-9.801362e-02	-9.929985e-02	-4.963700e-02	-5.106850e-02	-5.168283e-02	-4.993120e-02	-4.960715e-02	-5.439941e-02	-5.061243e-02	-5.011129e-02	-4.947040e-02	-4.955786e-02	-5.019243e-02	-5.064300e-02	-5.225271e-02	-5.298989e-02	-5.527730e-02	-5.615770e-02	-6.022493e-02	-6.093442e-02	-5.698817e-02	-5.781308e-02	-9.105552e-02	-9.233483e-02	-9.356158e-02	-9.459776e-02	-1.067857e-01	-1.211934e-01	-1.200010e-01	3.609213e-02	3.680680e-02	2.252876e-02	2.308377e-02	-4.739756e-02	-1.175191e-01	-1.052701e-01	-1.080788e-01	-7.613958e-02	-8.035089e-02	-5.807234e-02	-5.820333e-02	-6.191315e-02	-5.969589e-02	2.695177e-02	2.763442e-02	5.879250e-03	3.526288e-03	1.723844e-02	5.046148e-05	1.691002e-02	1.514265e-02	3.189344e-02	2.038353e-02	4.662648e-02	-1.036357e-01	-9.520182e-02	-6.876777e-02	-4.109015e-02	-1.128318e-01	-2.341893e-01	-2.128242e-01	1.521655e-01	6.023278e-03	3.059786e-03	-1.250411e-02	1.058299e-02	4.881663e-02	1.045755e-01	-5.001449e-02	2.572762e-01	-1.474738e-03	2.753236e-02	9.244997e-04	2.823442e-02	1.978543e-03	3.861606e-02	-4.517388e-05	1.585466e-02	3.743443e-02	2.678269e-02	1.156314e-01	9.279430e-04	-8.214759e-02	-5.127392e-02	-6.250539e-02	-4.717700e-02	-1.253966e-01	-5.144967e-02	-6.409243e-02	-4.418380e-02	-7.660386e-02	-9.460046e-02	-2.332624e-01	2.680433e-03	-2.663386e-02	-8.751407e-02	-1.927154e-02	6.365927e-02	1.010689e-02	-8.870840e-03	1.280128e-02	1.822559e-02	4.106626e-03	-6.601346e-02	-4.608804e-02	-4.516554e-02	-4.674421e-02	-8.815973e-02	-6.544742e-02	-4.958463e-02	-4.857759e-02	-4.908334e-02	-6.037871e-02	-6.934542e-02	-8.413126e-02	2.535046e-02	2.608107e-02	1.380718e-02	-7.851033e-02	-7.758139e-02	-7.697760e-02	-1.437785e-01	-5.204015e-02	-3.374136e-02	-1.852222e-03	-4.713186e-03	5.093104e-03	2.301120e-01	2.580465e-01	6.802655e-02	9.456907e-02	-4.943625e-02	1.787162e-02	-5.204919e-02	3.536389e-02	3.632523e-02	3.989728e-02	4.131416e-02	8.977827e-03	9.568186e-03	4.284597e-02	4.465840e-02	5.660771e-02	5.987851e-02	8.621774e-02	3.036360e-02	3.120536e-02	1.306864e-01	1.863847e-02	1.900061e-02	1.718423e-02	1.753601e-02	5.997578e-03	5.118559e-02	5.371832e-02	1.216619e-02	1.248868e-02	2.093594e-02	2.147007e-02	7.310571e-02	7.914161e-02	2.900887e-02	2.973420e-02	1.102797e-02	1.144448e-02	1.183695e-02	2.207759e-02	2.267199e-02	6.843922e-03	7.623606e-03	8.346195e-03	1.607421e-02	1.636119e-02	1.660048e-02	1.306363e-02	1.332610e-02	1.359113e-02	1.406302e-02	1.425676e-02	1.539023e-02	1.559345e-02	1.450501e-02	-9.932966e-02	-5.177012e-02	-5.196595e-02	-7.259596e-02	-5.198420e-02	-5.188732e-02	-5.200219e-02	-5.141394e-02	-5.376878e-02	-9.677009e-02	-9.836591e-02	-6.652706e-02	-6.803979e-02	-7.885239e-02	-8.039057e-02	-8.208292e-02	-4.550512e-02	-5.216841e-02	-5.070976e-02	-4.779141e-02	-4.705146e-02	-4.651225e-02	-4.559227e-02	-4.548929e-02	-4.532074e-02	-4.519953e-02	-4.521087e-02	-4.535778e-02	-4.577375e-02	-4.603239e-02	-4.639130e-02	-4.760166e-02	-5.057798e-02	-5.090881e-02	-4.808727e-02	-4.852717e-02	-4.907158e-02	-7.050911e-02	-7.174882e-02	-7.311169e-02	-7.444297e-02	-7.563356e-02	-9.949079e-02	-9.874617e-02	3.274205e-02	3.358007e-02	3.440542e-02	1.941036e-02	1.992916e-02	-9.690989e-02	-9.343838e-02	-8.643893e-02	-8.910475e-02	-9.193102e-02	-5.513539e-02	-4.937838e-02	-4.599255e-02	-4.318382e-02	-5.996818e-02	-5.766081e-02	-5.565824e-02	2.333195e-02	2.397325e-02	2.467222e-02	1.470676e-02	1.495049e-02	-4.173766e-04	9.524270e-03	-1.098391e-01	-7.813050e-02	1.851913e-02	-1.303270e-02	1.597928e-01	4.491364e-02	4.717669e-02	5.358493e-03	-9.530928e-02	-4.412254e-02	8.992465e-04	-6.401596e-02	5.449503e-05	-6.298383e-02	-1.013988e-01	-2.452410e-02	-4.223528e-02	-3.023928e-02	-9.188136e-02	1.020406e-01	3.007365e-02	1.117905e-02	3.702263e-03	1.488084e-02	9.190595e-03	1.582396e-02	1.313800e-02	-8.319377e-02	-4.348547e-02	-6.017905e-02	-5.771655e-02	-4.148141e-02	-6.076090e-02	-4.869283e-02	8.894940e-02	-7.814212e-02	3.572462e-02	-1.495871e-01	-8.893130e-02	1.136851e-01	6.590352e-02	2.814516e-03	2.473870e-02	-8.446186e-04	2.523762e-02	2.624661e-02	1.889759e-03	9.655599e-02	1.058426e-03	-4.296514e-02	-4.448095e-02	-3.342716e-02	-1.873297e-02	-5.497594e-02	-4.159137e-02	-4.625029e-02	-3.072517e-02	-3.874042e-02	-4.422664e-02	2.333020e-02	2.379910e-02	-7.358799e-02	-4.518202e-02	-3.666616e-02	-1.497817e-04	-3.470335e-03	4.578992e-03	6.182172e-02	8.201804e-02	-4.297325e-02	3.357230e-02	3.453665e-02	3.690430e-02	3.823089e-02	8.360943e-03	8.795554e-03	3.959623e-02	4.118566e-02	4.303451e-02	5.498975e-02	5.819506e-02	2.844737e-02	2.904214e-02	1.039242e-01	1.624784e-02	1.667588e-02	1.511573e-02	1.551393e-02	4.958390e-02	5.211075e-02	1.069897e-02	1.087117e-02	1.882779e-02	7.058008e-02	7.596390e-02	2.683394e-02	2.749277e-02	9.861620e-03	1.012329e-02	1.047744e-02	1.956417e-02	1.992382e-02	6.071468e-03	6.734666e-03	7.358982e-03	7.899311e-03	1.378061e-02	1.404588e-02	1.428331e-02	1.457999e-02	1.131967e-02	1.157117e-02	1.173293e-02	1.195876e-02	1.211674e-02	1.356855e-02	1.332779e-02	1.233513e-02	-4.447302e-02	-6.961489e-02	-6.610644e-02	-4.459143e-02	-4.451421e-02	-4.453756e-02	-4.466220e-02	-4.452588e-02	-7.889238e-02	-7.918692e-02	-5.119724e-02	-5.294204e-02	-6.205766e-02	-6.381669e-02	-6.549126e-02	-6.751426e-02	-4.983970e-02	-4.845354e-02	-4.722412e-02	-4.532631e-02	-4.456722e-02	-4.383106e-02	-4.337476e-02	-4.228530e-02	-4.214679e-02	-4.203153e-02	-4.165943e-02	-4.123262e-02	-4.154673e-02	-4.118493e-02	-4.162136e-02	-4.131109e-02	-4.185847e-02	-4.376552e-02	-4.422910e-02	-4.199355e-02	-4.272495e-02	-4.250684e-02	-4.325779e-02	-5.376253e-02	-5.474367e-02	-5.571304e-02	-5.712245e-02	-5.839833e-02	-5.958590e-02	-7.926901e-02	-7.916915e-02	3.077948e-02	3.159717e-02	3.258034e-02	1.694435e-02	1.759083e-02	1.785774e-02	-7.831781e-02	-7.581166e-02	-7.107000e-02	-6.983096e-02	-7.243390e-02	-7.489024e-02	-7.682133e-02	-4.359127e-02	-4.113939e-02	-3.701642e-02	-3.225421e-02	-5.151058e-02	-5.542000e-02	-5.346212e-02	2.072381e-02	2.112873e-02	2.198310e-02	2.242553e-02	1.251212e-02	1.273827e-02	1.291128e-02	2.789375e-03	-9.617917e-02	5.911573e-02	-1.607665e-01	2.054274e-03	2.404051e-02	8.581207e-03	1.277909e-03	-6.934271e-02	2.920533e-04	4.954277e-03	9.757692e-03	-4.913157e-02	-4.539278e-02	-2.731095e-02	-1.339570e-02	-8.745448e-03	-7.269966e-03	-8.921248e-03	3.960416e-05	9.825712e-02	-2.199538e-02	6.271618e-02	8.114704e-02	4.564029e-02	2.805946e-02	1.320488e-02	-8.541338e-02	-4.827993e-02	-5.322811e-02	-3.906554e-02	-3.913498e-02	-3.794759e-02	-3.848412e-02	-3.893232e-02	1.657407e-02	-2.496418e-02	-8.134179e-02	8.323653e-03	-1.714603e-01	-7.297969e-02	-6.526244e-03	1.741534e-01	1.859839e-01	4.379680e-02	5.528438e-03	-1.325976e-03	-5.178174e-02	5.193418e-04	-5.763077e-02	-2.270671e-02	-3.384096e-02	3.479895e-02	3.543892e-03	1.186729e-02	1.151523e-02	-7.681149e-02	-3.829380e-02	-5.537417e-02	7.568574e-02	2.252370e-02	-1.813002e-02	-2.331835e-02	-2.678935e-02	-3.356678e-02	2.113954e-02	-3.866471e-02	-3.252297e-02	-3.401683e-03	4.264750e-03	3.224338e-02	3.343940e-02	3.444031e-02	3.583866e-02	8.039431e-03	7.749896e-03	3.695530e-02	3.851473e-02	3.984368e-02	4.157153e-02	5.290804e-02	5.586733e-02	2.636078e-02	8.595845e-02	1.435888e-02	1.463085e-02	1.365344e-02	1.382073e-02	4.783317e-02	5.022483e-02	9.366784e-03	9.681722e-03	6.670691e-02	7.105849e-02	2.499980e-02	8.739847e-03	9.103502e-03	9.317164e-03	1.755045e-02	6.052009e-03	6.569446e-03	7.012570e-03	7.427064e-03	1.193101e-02	1.230433e-02	1.238687e-02	1.281071e-02	1.299321e-02	1.004824e-02	1.008593e-02	1.038284e-02	1.041310e-02	1.071600e-02	-6.599365e-02	-6.293429e-02	-6.017196e-02	-3.970238e-02	-3.919224e-02	-3.962740e-02	-3.916871e-02	-3.972400e-02	-6.206630e-02	-6.158979e-02	-3.659723e-02	-4.107217e-02	-5.183350e-02	-5.267457e-02	-5.447018e-02	-4.661916e-02	-4.561881e-02	-4.442938e-02	-4.372479e-02	-4.267574e-02	-4.208244e-02	-4.124385e-02	-4.052537e-02	-3.955801e-02	-3.918461e-02	-3.809690e-02	-3.789377e-02	-3.785507e-02	-3.817421e-02	-3.840968e-02	-4.151754e-02	-4.342469e-02	-4.312095e-02	-4.500358e-02	-4.521552e-02	-4.626564e-02	-4.769009e-02	-6.153937e-02	-6.204303e-02	2.924274e-02	3.037332e-02	3.122417e-02	1.496460e-02	1.568463e-02	-6.219636e-02	-6.062826e-02	-5.698322e-02	-5.663435e-02	-5.893358e-02	-6.090548e-02	-6.196534e-02	-6.215049e-02	-3.894537e-02	-3.836209e-02	-3.554380e-02	-3.040096e-02	-5.133256e-02	-4.973791e-02	1.865120e-02	1.984965e-02	1.076295e-02	1.109358e-02	1.113360e-02	1.146257e-02	1.883106e-01	-1.741521e-01	2.319355e-03	-9.657773e-03	8.431372e-02	5.837988e-02	-6.994165e-02	-1.753997e-02	-5.461793e-02	9.657669e-02	6.468738e-02	-4.130812e-03	5.218417e-03	2.976192e-03	-2.310990e-02	-8.279206e-02	-3.285152e-02	-2.105473e-02	3.576207e-03	5.548197e-02	1.425109e-02	-6.681641e-02	1.040543e-02	4.383741e-02	4.135174e-02	1.720326e-02	7.696975e-03	8.767827e-03	4.782524e-04	1.209108e-02	7.374276e-03	7.581005e-03	-4.356966e-02	-6.152511e-02	-4.585201e-02	-1.398108e-02	-3.736034e-02	5.274554e-02	-1.592643e-01	-6.405038e-02	-7.800850e-03	-2.013597e-03	6.841154e-02	2.241709e-02	-3.459782e-02	-3.529333e-02	-7.357726e-02	-1.405140e-03	-9.471494e-02	-5.445155e-03	1.737287e-01	5.601926e-03	1.487778e-03	1.776947e-03	-3.445587e-02	4.718140e-03	-5.270090e-02	-5.098262e-02	-3.453607e-02	-1.730843e-02	-2.196710e-02	2.111343e-02	-2.858929e-02	-2.465809e-02	4.159809e-03	3.167569e-02	3.405587e-02	7.141408e-03	3.664757e-02	3.864553e-02	5.020832e-02	7.269452e-02	1.274431e-02	4.575178e-02	4.788428e-02	8.471436e-03	6.138808e-02	2.355082e-02	2.505178e-02	8.058589e-03	8.244397e-03	1.511757e-02	5.992295e-03	6.309674e-03	6.683917e-03	6.954301e-03	1.081145e-02	1.131888e-02	1.159376e-02	9.040715e-03	9.338953e-03	-5.906330e-02	-5.675942e-02	-3.541452e-02	-3.542414e-02	-4.757364e-02	-2.994681e-02	-4.543257e-02	-3.663019e-02	-4.347506e-02	-4.153299e-02	-3.985100e-02	-3.838173e-02	-3.737215e-02	-3.582023e-02	-3.509768e-02	-3.460295e-02	-3.429029e-02	-3.411834e-02	-3.408207e-02	-3.411331e-02	-3.416613e-02	-3.433610e-02	-3.617004e-02	-3.669731e-02	-3.881753e-02	-3.991981e-02	-4.726739e-02	-4.825333e-02	2.665587e-02	2.850968e-02	2.986191e-02	1.313340e-02	1.352588e-02	-4.906687e-02	-4.821971e-02	-4.542631e-02	-4.167390e-02	-4.728870e-02	-4.893161e-02	-5.011396e-02	-5.020812e-02	-4.924497e-02	-4.987957e-02	-3.429915e-02	-3.056599e-02	-4.965195e-02	-4.777606e-02	1.611122e-02	1.839468e-02	1.969692e-02	9.680064e-03	1.002912e-02	-7.502117e-02	1.552410e-01	1.535630e-01	-1.033779e-01	6.188702e-03	-6.488286e-02	-4.348506e-02	8.578178e-02	2.777334e-03	4.220192e-03	1.065193e-01	7.440574e-02	-2.492854e-02	-1.417321e-02	-5.130284e-03	-5.272538e-02	2.128868e-02	-2.536312e-02	-8.520276e-02	3.542893e-02	5.034353e-03	-3.847117e-02	-2.781249e-02	3.220695e-03	1.052109e-02	4.170517e-02	1.645101e-02	1.346365e-02	5.097991e-02	5.323184e-02	5.355394e-03	5.638917e-03	-1.180331e-01	-5.867194e-02	-6.097697e-02	-4.954494e-02	-1.220956e-02	-3.144380e-02	1.890549e-02	6.606861e-03	-1.440555e-01	-1.450441e-01	-7.591985e-03	4.880886e-02	-5.107439e-02	4.172577e-02	5.570157e-02	-1.675131e-02	3.775043e-03	1.268328e-02	-1.792943e-03	6.717572e-03	6.810584e-03	-5.651952e-02	-1.068858e-02	4.683783e-02	5.834741e-02	2.015041e-02	-5.529734e-03	1.236253e-01	6.418217e-03	1.776872e-03	2.717576e-03	-3.158060e-02	4.637543e-03	-4.820856e-02	-3.154847e-02	-1.733509e-02	-3.144268e-02	-2.208726e-02	-1.939656e-02	3.058110e-02	3.306939e-02	3.764321e-02	3.998169e-02	6.278725e-02	1.106730e-02	4.329800e-02	4.498963e-02	1.014396e-02	2.551857e-02	2.706374e-02	2.252188e-02	6.877642e-03	7.107079e-03	7.194295e-03	5.876034e-03	9.213958e-03	9.676655e-03	7.349130e-03	7.565082e-03	1.763069e-02	-5.457217e-02	-3.167291e-02	-3.177111e-02	-3.883512e-02	-4.194753e-02	-3.983249e-02	-3.456651e-02	-3.796676e-02	-3.648082e-02	-3.538685e-02	-3.385348e-02	-3.315916e-02	-3.256237e-02	-3.212839e-02	-3.182874e-02	-3.162706e-02	-3.151799e-02	-1.552750e-02	-2.243659e-02	-2.691790e-02	-2.925256e-0