# vtk DataFile Version 3.0
vtk output
ASCII
DATASET UNSTRUCTURED_GRID
POINTS 5233 float
9.997500e-01	-3.632909e-05	0.0	9.990000e-01	-1.452618e-04	0.0	9.977600e-01	-3.252008e-04	0.0	9.960200e-01	-5.774943e-04	0.0	9.937800e-01	-9.022942e-04	0.0	9.910500e-01	-1.298763e-03	0.0	9.878400e-01	-1.766726e-03	0.0	9.841300e-01	-2.311194e-03	0.0	9.799500e-01	-2.930640e-03	0.0	9.752800e-01	-3.631444e-03	0.0	9.701500e-01	-4.412625e-03	0.0	9.645400e-01	-5.280292e-03	0.0	9.584700e-01	-6.233365e-03	0.0	9.519400e-01	-7.272227e-03	0.0	9.449600e-01	-8.393908e-03	0.0	9.375400e-01	-9.593773e-03	0.0	9.296900e-01	-1.086609e-02	0.0	9.214000e-01	-1.220804e-02	0.0	9.127000e-01	-1.361074e-02	0.0	9.035800e-01	-1.507272e-02	0.0	8.940600e-01	-1.658877e-02	0.0	8.841500e-01	-1.815610e-02	0.0	8.738500e-01	-1.977361e-02	0.0	8.631800e-01	-2.143627e-02	0.0	8.521600e-01	-2.313752e-02	0.0	8.407700e-01	-2.487471e-02	0.0	8.290500e-01	-2.663345e-02	0.0	8.170100e-01	-2.840162e-02	0.0	8.046400e-01	-3.016792e-02	0.0	7.919700e-01	-3.191393e-02	0.0	7.790100e-01	-3.362378e-02	0.0	7.657800e-01	-3.528073e-02	0.0	7.522800e-01	-3.687177e-02	0.0	7.385200e-01	-3.838440e-02	0.0	7.245300e-01	-3.980643e-02	0.0	7.103200e-01	-4.113073e-02	0.0	6.958900e-01	-4.235375e-02	0.0	6.812700e-01	-4.347212e-02	0.0	6.664700e-01	-4.448693e-02	0.0	6.515000e-01	-4.540154e-02	0.0	6.363800e-01	-4.622067e-02	0.0	6.211300e-01	-4.695082e-02	0.0	6.057600e-01	-4.760016e-02	0.0	5.902800e-01	-4.817747e-02	0.0	5.747100e-01	-4.869148e-02	0.0	5.590600e-01	-4.915119e-02	0.0	5.433600e-01	-4.956464e-02	0.0	5.276100e-01	-4.993996e-02	0.0	5.118400e-01	-5.028359e-02	0.0	4.960500e-01	-5.060149e-02	0.0	4.802700e-01	-5.089775e-02	0.0	4.645100e-01	-5.117554e-02	0.0	4.487800e-01	-5.143670e-02	0.0	4.331100e-01	-5.168146e-02	0.0	4.175000e-01	-5.190932e-02	0.0	4.019700e-01	-5.211839e-02	0.0	3.865400e-01	-5.230586e-02	0.0	3.712300e-01	-5.246816e-02	0.0	3.560400e-01	-5.260130e-02	0.0	3.409900e-01	-5.270061e-02	0.0	3.261100e-01	-5.276113e-02	0.0	3.114000e-01	-5.277790e-02	0.0	2.968700e-01	-5.274582e-02	0.0	2.825500e-01	-5.265996e-02	0.0	2.684500e-01	-5.251559e-02	0.0	2.545700e-01	-5.230801e-02	0.0	2.409400e-01	-5.203324e-02	0.0	2.275700e-01	-5.168749e-02	0.0	2.144700e-01	-5.126729e-02	0.0	2.016600e-01	-5.076993e-02	0.0	1.891400e-01	-5.019238e-02	0.0	1.769300e-01	-4.953284e-02	0.0	1.650400e-01	-4.878952e-02	0.0	1.534900e-01	-4.796177e-02	0.0	1.422900e-01	-4.704883e-02	0.0	1.314400e-01	-4.604934e-02	0.0	1.209500e-01	-4.496296e-02	0.0	1.108500e-01	-4.379208e-02	0.0	1.011300e-01	-4.253503e-02	0.0	9.181000e-02	-4.119389e-02	0.0	8.290000e-02	-3.976997e-02	0.0	7.440000e-02	-3.826304e-02	0.0	6.633000e-02	-3.667657e-02	0.0	5.869000e-02	-3.501058e-02	0.0	5.149000e-02	-3.326708e-02	0.0	4.474000e-02	-3.144844e-02	0.0	3.844000e-02	-2.955433e-02	0.0	3.260000e-02	-2.758711e-02	0.0	2.723000e-02	-2.554977e-02	0.0	2.232000e-02	-2.343708e-02	0.0	1.790000e-02	-2.126113e-02	0.0	1.395000e-02	-1.901092e-02	0.0	1.049000e-02	-1.669561e-02	0.0	7.520000e-03	-1.431461e-02	0.0	5.040000e-03	-1.186637e-02	0.0	3.050000e-03	-9.347302e-03	0.0	1.560000e-03	-6.769269e-03	0.0	5.600000e-04	-4.108233e-03	0.0	6.000000e-05	-1.363608e-03	0.0	0.000000e+00	0.000000e+00	0.0	6.000000e-05	1.350236e-03	0.0	5.600000e-04	4.050826e-03	0.0	1.560000e-03	6.663226e-03	0.0	3.050000e-03	9.195473e-03	0.0	5.040000e-03	1.167583e-02	0.0	7.520000e-03	1.409653e-02	0.0	1.049000e-02	1.646478e-02	0.0	1.395000e-02	1.878581e-02	0.0	1.790000e-02	2.106403e-02	0.0	2.232000e-02	2.329392e-02	0.0	2.723000e-02	2.549065e-02	0.0	3.260000e-02	2.764558e-02	0.0	3.844000e-02	2.976800e-02	0.0	4.474000e-02	3.185849e-02	0.0	5.149000e-02	3.391797e-02	0.0	5.869000e-02	3.595015e-02	0.0	6.633000e-02	3.795531e-02	0.0	7.440000e-02	3.993367e-02	0.0	8.290000e-02	4.188739e-02	0.0	9.181000e-02	4.381361e-02	0.0	1.011300e-01	4.571359e-02	0.0	1.108500e-01	4.758588e-02	0.0	1.209500e-01	4.942683e-02	0.0	1.314400e-01	5.123782e-02	0.0	1.422900e-01	5.301272e-02	0.0	1.534900e-01	5.474871e-02	0.0	1.650400e-01	5.644398e-02	0.0	1.769300e-01	5.809472e-02	0.0	1.891400e-01	5.969553e-02	0.0	2.016600e-01	6.124223e-02	0.0	2.144700e-01	6.272926e-02	0.0	2.275700e-01	6.415328e-02	0.0	2.409400e-01	6.550849e-02	0.0	2.545700e-01	6.679020e-02	0.0	2.684500e-01	6.799357e-02	0.0	2.825500e-01	6.911218e-02	0.0	2.968700e-01	7.014214e-02	0.0	3.114000e-01	7.107860e-02	0.0	3.261100e-01	7.191555e-02	0.0	3.409900e-01	7.264840e-02	0.0	3.560400e-01	7.327286e-02	0.0	3.712300e-01	7.378330e-02	0.0	3.865400e-01	7.417483e-02	0.0	4.019700e-01	7.444303e-02	0.0	4.175000e-01	7.458295e-02	0.0	4.331100e-01	7.458992e-02	0.0	4.487800e-01	7.445955e-02	0.0	4.645100e-01	7.418745e-02	0.0	4.802700e-01	7.376991e-02	0.0	4.960500e-01	7.320341e-02	0.0	5.118400e-01	7.248482e-02	0.0	5.276100e-01	7.161270e-02	0.0	5.433600e-01	7.058503e-02	0.0	5.590600e-01	6.940265e-02	0.0	5.747100e-01	6.806549e-02	0.0	5.902800e-01	6.657731e-02	0.0	6.057600e-01	6.494175e-02	0.0	6.211300e-01	6.316504e-02	0.0	6.363800e-01	6.125402e-02	0.0	6.515000e-01	5.921698e-02	0.0	6.664700e-01	5.706516e-02	0.0	6.812700e-01	5.481151e-02	0.0	6.958900e-01	5.246892e-02	0.0	7.103200e-01	5.005129e-02	0.0	7.245300e-01	4.757686e-02	0.0	7.385200e-01	4.505941e-02	0.0	7.522800e-01	4.251466e-02	0.0	7.657800e-01	3.996213e-02	0.0	7.790100e-01	3.741749e-02	0.0	7.919700e-01	3.489399e-02	0.0	8.046400e-01	3.240819e-02	0.0	8.170100e-01	2.997405e-02	0.0	8.290500e-01	2.760884e-02	0.0	8.407700e-01	2.532127e-02	0.0	8.521600e-01	2.312328e-02	0.0	8.631800e-01	2.103157e-02	0.0	8.738500e-01	1.905016e-02	0.0	8.841500e-01	1.718895e-02	0.0	8.940600e-01	1.545535e-02	0.0	9.035800e-01	1.385019e-02	0.0	9.127000e-01	1.237271e-02	0.0	9.214000e-01	1.102010e-02	0.0	9.296900e-01	9.781662e-03	0.0	9.375400e-01	8.650401e-03	0.0	9.449600e-01	7.612208e-03	0.0	9.519400e-01	6.656126e-03	0.0	9.584700e-01	5.772587e-03	0.0	9.645400e-01	4.954359e-03	0.0	9.701500e-01	4.195689e-03	0.0	9.752800e-01	3.496291e-03	0.0	9.799500e-01	2.852720e-03	0.0	9.841300e-01	2.270023e-03	0.0	9.878400e-01	1.747228e-03	0.0	9.910500e-01	1.290667e-03	0.0	9.937800e-01	8.994899e-04	0.0	9.960200e-01	5.767420e-04	0.0	9.977600e-01	3.250644e-04	0.0	9.990000e-01	1.452495e-04	0.0	9.997500e-01	3.632890e-05	0.0	1.000000e+00	0.000000e+00	0.0	1.984229e+01	2.506660e+00	0.0	1.937166e+01	4.973800e+00	0.0	1.859553e+01	7.362490e+00	0.0	1.752613e+01	9.635070e+00	0.0	1.618034e+01	1.175571e+01	0.0	1.457937e+01	1.369094e+01	0.0	1.274848e+01	1.541027e+01	0.0	1.071654e+01	1.688656e+01	0.0	8.515590e+00	1.809654e+01	0.0	6.180340e+00	1.902113e+01	0.0	3.747630e+00	1.964575e+01	0.0	1.255810e+00	1.996053e+01	0.0	-1.255810e+00	1.996053e+01	0.0	-3.747630e+00	1.964574e+01	0.0	-6.180340e+00	1.902113e+01	0.0	-8.515590e+00	1.809654e+01	0.0	-1.071654e+01	1.688656e+01	0.0	-1.274848e+01	1.541026e+01	0.0	-1.457937e+01	1.369094e+01	0.0	-1.618034e+01	1.175570e+01	0.0	-1.752613e+01	9.635070e+00	0.0	-1.859553e+01	7.362490e+00	0.0	-1.937166e+01	4.973800e+00	0.0	-1.984229e+01	2.506660e+00	0.0	-2.000000e+01	0.000000e+00	0.0	-1.984229e+01	-2.506670e+00	0.0	-1.937166e+01	-4.973800e+00	0.0	-1.859553e+01	-7.362490e+00	0.0	-1.752613e+01	-9.635080e+00	0.0	-1.618034e+01	-1.175571e+01	0.0	-1.457937e+01	-1.369094e+01	0.0	-1.274848e+01	-1.541027e+01	0.0	-1.071653e+01	-1.688656e+01	0.0	-8.515580e+00	-1.809654e+01	0.0	-6.180340e+00	-1.902113e+01	0.0	-3.747620e+00	-1.964575e+01	0.0	-1.255810e+00	-1.996053e+01	0.0	1.255810e+00	-1.996053e+01	0.0	3.747630e+00	-1.964574e+01	0.0	6.180340e+00	-1.902113e+01	0.0	8.515590e+00	-1.809654e+01	0.0	1.071654e+01	-1.688656e+01	0.0	1.274848e+01	-1.541026e+01	0.0	1.457937e+01	-1.369094e+01	0.0	1.618034e+01	-1.175570e+01	0.0	1.752614e+01	-9.635070e+00	0.0	1.859553e+01	-7.362490e+00	0.0	1.937166e+01	-4.973790e+00	0.0	1.984229e+01	-2.506660e+00	0.0	2.000000e+01	0.000000e+00	0.0	6.093892e-02	-4.285144e-02	0.0	6.600410e-01	-5.844939e-02	0.0	4.255297e-01	8.863687e-02	0.0	6.904536e-01	6.677179e-02	0.0	3.791252e-01	-6.656260e-02	0.0	9.994589e-01	-7.258723e-04	0.0	9.985402e-01	-1.320872e-03	0.0	7.738251e-01	-4.634860e-02	0.0	6.897588e-01	-5.606349e-02	0.0	-1.367138e-03	6.233161e-03	0.0	7.467650e-01	-4.997311e-02	0.0	5.838090e-01	8.122916e-02	0.0	9.927651e-01	-3.598793e-03	0.0	9.898616e-01	-4.480982e-03	0.0	5.994275e-01	7.958836e-02	0.0	7.187102e-01	-5.322760e-02	0.0	-1.548094e-03	7.305687e-04	0.0	9.864673e-01	-5.441292e-03	0.0	9.825916e-01	-6.470515e-03	0.0	-1.358171e-03	-6.336027e-03	0.0	6.449375e-01	-5.947833e-02	0.0	8.244939e-01	-3.842106e-02	0.0	7.997632e-01	-4.246746e-02	0.0	3.482204e-01	8.660152e-02	0.0	8.478910e-01	-3.434813e-02	0.0	2.468390e-01	7.862192e-02	0.0	8.698983e-01	-3.032503e-02	0.0	1.001408e-02	2.079824e-02	0.0	8.904116e-01	-2.642047e-02	0.0	7.722818e-02	-4.682321e-02	0.0	9.093595e-01	-2.267674e-02	0.0	-1.865007e-03	-3.138557e-03	0.0	9.422484e-01	-1.580904e-02	0.0	9.266631e-01	-1.912583e-02	0.0	1.806769e-02	-2.637803e-02	0.0	4.256782e-01	-6.623083e-02	0.0	8.590773e-01	-3.232303e-02	0.0	9.560748e-01	-1.276843e-02	0.0	9.782290e-01	-7.589010e-03	0.0	9.680882e-01	-1.002215e-02	0.0	1.584746e-01	-5.900398e-02	0.0	9.000881e-01	-2.452666e-02	0.0	7.604299e-01	-4.820093e-02	0.0	9.971132e-01	-2.058079e-03	0.0	5.988429e-01	-6.197001e-02	0.0	4.413590e-01	-6.604490e-02	0.0	5.361230e-01	-6.418097e-02	0.0	4.728882e-01	-6.557080e-02	0.0	5.045102e-01	-6.495629e-02	0.0	4.886866e-01	-6.528085e-02	0.0	1.251652e-01	-5.514410e-02	0.0	2.799454e-02	-3.148915e-02	0.0	3.945492e-01	-6.649285e-02	0.0	4.640172e-02	-3.855324e-02	0.0	4.100682e-01	-6.638196e-02	0.0	3.187978e-01	-6.636792e-02	0.0	3.486567e-01	-6.657206e-02	0.0	3.367005e-02	-3.391128e-02	0.0	2.896281e-01	-6.592628e-02	0.0	9.346743e-01	-1.743395e-02	0.0	1.470184e-01	-5.780948e-02	0.0	1.948400e-01	-6.200962e-02	0.0	8.600599e-02	-4.867547e-02	0.0	1.048018e-01	-5.210645e-02	0.0	5.676108e-01	-6.321237e-02	0.0	1.702734e-01	-6.010386e-02	0.0	6.143295e-01	-6.122907e-02	0.0	8.803501e-01	-2.835590e-02	0.0	2.280418e-02	-2.897635e-02	0.0	9.951875e-01	-2.803889e-03	0.0	6.796488e-03	-1.820110e-02	0.0	1.798544e-02	2.626178e-02	0.0	9.182203e-01	-2.087471e-02	0.0	9.49388
[...]
POINT_DATA 5233

SCALARS Conservative_1 float 1
LOOKUP_TABLE default
4.311674e-01	2.181884e-01	1.787498e-01	1.492542e-01	1.299765e-01	1.152174e-01	1.034548e-01	9.390938e-02	8.607403e-02	7.957620e-02	7.413244e-02	6.954651e-02	6.563459e-02	6.229026e-02	5.940223e-02	5.689567e-02	5.470546e-02	5.265939e-02	5.073616e-02	4.898394e-02	4.756878e-02	4.638156e-02	4.540931e-02	4.462173e-02	4.393619e-02	4.341789e-02	4.294760e-02	4.260786e-02	4.227072e-02	4.198044e-02	4.170578e-02	4.134858e-02	4.102620e-02	4.054130e-02	4.006029e-02	3.942401e-02	3.878438e-02	3.800153e-02	3.723631e-02	3.635455e-02	3.551614e-02	3.459396e-02	3.374191e-02	3.283513e-02	3.201455e-02	3.117008e-02	3.040972e-02	2.965867e-02	2.897427e-02	2.832231e-02	2.772596e-02	2.716264e-02	2.662907e-02	2.615520e-02	2.568614e-02	2.528277e-02	2.487486e-02	2.451896e-02	2.415077e-02	2.382463e-02	2.347827e-02	2.316669e-02	2.282405e-02	2.250886e-02	2.215557e-02	2.182062e-02	2.144205e-02	2.107316e-02	2.066073e-02	2.023868e-02	1.978510e-02	1.929853e-02	1.879242e-02	1.823876e-02	1.765816e-02	1.704065e-02	1.637162e-02	1.566902e-02	1.491213e-02	1.411160e-02	1.325186e-02	1.233891e-02	1.136340e-02	1.032365e-02	9.211837e-03	8.028540e-03	6.763588e-03	5.416383e-03	3.990732e-03	2.473919e-03	9.163980e-04	-5.195748e-04	-2.371375e-03	-4.778690e-03	-2.032193e-03	6.362955e-03	8.077580e-03	2.480970e-03	-4.781532e-03	-1.152546e-02	-1.777273e-02	-3.141267e-02	-5.177386e-02	-6.844836e-02	-8.280557e-02	-1.047984e-01	-1.318874e-01	-1.514036e-01	-1.601988e-01	-1.634676e-01	-1.651178e-01	-1.658184e-01	-1.653567e-01	-1.634178e-01	-1.603305e-01	-1.565417e-01	-1.525363e-01	-1.486569e-01	-1.452404e-01	-1.423771e-01	-1.400388e-01	-1.383297e-01	-1.372908e-01	-1.368772e-01	-1.367273e-01	-1.365497e-01	-1.362671e-01	-1.359257e-01	-1.355803e-01	-1.352438e-01	-1.346894e-01	-1.339771e-01	-1.330519e-01	-1.320945e-01	-1.313239e-01	-1.306510e-01	-1.298578e-01	-1.280853e-01	-1.249348e-01	-1.197743e-01	-1.117958e-01	-1.000723e-01	-8.763065e-02	-8.047273e-02	-7.974691e-02	-8.203171e-02	-8.441382e-02	-8.597141e-02	-8.683733e-02	-8.731337e-02	-8.731057e-02	-8.696562e-02	-8.614648e-02	-8.505888e-02	-8.378126e-02	-8.224439e-02	-8.070707e-02	-7.896243e-02	-7.718835e-02	-7.538195e-02	-7.349695e-02	-7.170539e-02	-6.984589e-02	-6.814539e-02	-6.640498e-02	-6.485521e-02	-6.329742e-02	-6.195318e-02	-6.062243e-02	-5.951663e-02	-5.843981e-02	-5.760313e-02	-5.678701e-02	-5.623273e-02	-5.578683e-02	-5.553684e-02	-5.551737e-02	-5.571491e-02	-5.625740e-02	-5.706917e-02	-5.841290e-02	-6.007093e-02	-6.200832e-02	-6.414989e-02	-6.670555e-02	-6.960427e-02	-7.294217e-02	-7.667525e-02	-8.090603e-02	-8.568966e-02	-9.119230e-02	-9.757412e-02	-1.051129e-01	-1.141043e-01	-1.250099e-01	-1.384263e-01	-1.588505e-01	-1.775503e-01	-3.392474e-01	3.506269e-02	-1.173824e-04	-1.283706e-04	-1.386331e-04	-1.473395e-04	-1.579662e-04	-1.659035e-04	-1.746449e-04	-1.772717e-04	-1.706519e-04	-1.683968e-04	-1.736656e-04	-1.746837e-04	-1.765595e-04	-1.676981e-04	-1.481555e-04	-1.389428e-04	-1.197763e-04	-1.060574e-04	-9.109911e-05	-7.155487e-05	-4.432471e-05	-2.826212e-05	3.247938e-05	1.794156e-04	1.310195e-04	1.552778e-04	2.194857e-04	2.262801e-04	1.382160e-04	1.713918e-04	1.995707e-04	2.141500e-04	2.257388e-04	2.274869e-04	2.264398e-04	2.146858e-04	1.796257e-04	1.485783e-04	9.000055e-05	6.589904e-05	5.390315e-05	3.266934e-05	1.124864e-05	-1.092460e-05	-3.160433e-05	-4.985727e-05	-6.556533e-05	-8.064803e-05	-9.387673e-05	-1.062994e-04	9.949958e-03	3.256144e-02	-7.036806e-02	-6.142786e-02	2.183977e-02	3.365829e-01	2.413103e-01	3.773922e-02	3.407996e-02	-3.202346e-02	3.666729e-02	-7.021730e-02	1.281195e-01	1.121167e-01	-6.904167e-02	3.546257e-02	-1.351862e-02	1.000156e-01	9.056078e-02	4.031889e-03	3.179129e-02	3.987708e-02	3.875855e-02	-8.930301e-02	4.126159e-02	-1.094817e-01	4.308146e-02	-1.122186e-01	4.557749e-02	1.167575e-02	4.906859e-02	-1.853814e-03	5.751382e-02	5.300095e-02	1.656335e-03	2.291391e-02	4.209534e-02	6.343892e-02	8.294561e-02	7.152036e-02	1.655985e-02	4.719783e-02	3.724356e-02	1.833589e-01	2.940616e-02	2.333545e-02	2.655242e-02	2.425802e-02	2.533509e-02	2.478414e-02	1.504245e-02	4.394841e-03	2.216943e-02	7.953581e-03	2.254044e-02	2.062768e-02	2.121135e-02	5.659178e-03	2.005692e-02	5.513656e-02	1.609433e-02	1.780674e-02	1.244720e-02	1.383655e-02	2.791487e-02	1.700731e-02	3.020453e-02	4.421983e-02	3.063529e-03	1.503448e-01	-2.999085e-03	-1.345494e-01	5.102838e-02	6.025347e-02	7.670254e-02	-4.592875e-02	4.050771e-02	1.916076e-02	2.722672e-02	3.610399e-02	3.825605e-02	1.446263e-02	1.851820e-02	2.866309e-02	3.335340e-02	8.985400e-03	-3.586277e-03	2.983726e-04	2.150950e-02	1.741778e-02	4.557196e-01	1.885429e-02	1.316919e-02	2.033204e-02	1.947496e-02	2.377673e-02	3.481189e-02	-2.007528e-02	6.439732e-03	-7.299361e-02	-8.315627e-03	-1.413453e-01	-1.384154e-01	-1.427123e-01	-1.182848e-01	-6.933777e-02	-1.675797e-01	-7.351349e-02	-7.329726e-02	-8.264703e-02	-7.401979e-02	-5.441622e-02	-7.367524e-02	-7.157871e-02	-7.194820e-02	-6.035114e-02	-5.698447e-02	-1.278837e-01	-8.800501e-02	-7.047508e-02	-6.467076e-02	-1.220690e-01	-1.350708e-01	-1.056889e-01	-1.081631e-01	-1.149709e-01	-1.014393e-01	-7.259111e-02	-6.931827e-02	-1.160631e-01	-1.172013e-01	-6.657059e-02	-1.137184e-01	-1.119924e-01	-6.397647e-02	-7.124164e-02	-5.698350e-02	-5.906558e-02	-5.395028e-02	-5.526570e-02	-5.278416e-02	-5.312116e-02	-5.555077e-02	-5.311874e-02	-6.738754e-02	-5.861152e-02	-7.803437e-02	-5.286448e-02	-5.363201e-02	-5.344238e-02	-5.285391e-02	-5.604985e-02	-5.452914e-02	-6.018949e-02	-5.795696e-02	-6.526088e-02	-6.266209e-02	-7.220867e-02	-6.784504e-02	-1.129800e-01	-1.107956e-01	-1.155563e-01	-1.143683e-01	-1.411327e-01	-1.165418e-01	-1.272228e-01	-1.427573e-01	1.817728e-02	-6.791927e-02	6.714887e-02	3.928215e-02	2.090692e-02	2.592994e-02	-5.613037e-02	-1.386598e-01	-8.906864e-02	-1.247212e-01	-1.314461e-01	-1.069555e-01	-1.199043e-01	-9.437497e-02	-1.020812e-01	-1.040744e-01	-1.117928e-01	-1.244598e-01	-9.687590e-02	-7.982622e-02	-6.237905e-02	-3.941332e-01	-2.127735e-01	-2.845891e-01	3.097744e-02	6.845024e-03	-1.418874e-01	-7.377786e-02	1.567241e-03	-9.946284e-04	1.084305e-02	1.558794e-02	1.976003e-02	-1.111892e-01	-2.961824e-02	-2.026189e-02	1.733390e-02	3.035569e-02	4.790472e-02	-1.293701e-03	-5.857394e-02	2.966943e-02	3.444777e-02	1.063050e-01	1.809445e-02	3.922081e-02	3.737685e-02	1.152317e-02	3.847816e-03	1.604830e-02	1.127385e-03	6.386181e-02	1.442525e-02	3.110916e-02	2.820533e-02	2.055801e-02	1.089898e-02	1.918901e-02	4.427848e-02	3.511927e-02	-7.656626e-02	-1.128267e-01	-5.389054e-02	-4.927474e-02	-1.003123e-01	-5.307477e-02	-9.473121e-02	-5.071926e-02	-1.060910e-01	-6.614452e-02	-6.087574e-02	-6.660788e-02	-5.156562e-02	-1.180210e-01	-6.986414e-02	-8.928120e-02	-8.808485e-02	-7.298789e-02	-8.947099e-02	-1.024358e-01	2.889924e-02	1.574973e-02	-9.428231e-02	-9.622904e-02	-1.196479e-01	-7.799376e-02	-1.337291e-01	-5.257154e-02	1.477363e-02	-1.276628e-01	-1.808200e-01	-1.558043e-01	-5.816480e-02	-3.909987e-02	-2.928798e-03	-5.941246e-03	-1.028617e-02	2.379842e-03	1.509216e-01	9.474317e-03	1.964950e-01	1.396350e-01	-5.978174e-02	2.345445e-02	9.505924e-02	4.147858e-02	-5.791474e-02	1.206285e-01	-5.944975e-04	2.017118e-02	-5.875844e-02	3.822351e-02	-8.357625e-02	4.027699e-02	4.280273e-02	1.021453e-02	4.598328e-02	5.000612e-02	5.721126e-02	4.747771e-03	6.027756e-02	6.804949e-02	8.620488e-02	1.359239e-02	3.308976e-02	3.380283e-02	1.658343e-01	2.095662e-02	2.138261e-02	2.186650e-02	3.593742e-03	1.948369e-02	1.983832e-02	1.833531e-02	6.851548e-03	5.216919e-02	5.452979e-02	1.402264e-02	1.210677e-02	2.408072e-02	2.601756e-02	7.301036e-02	7.894406e-02	3.175798e-02	3.247495e-02	1.263555e-02	1.314494e-02	2.467694e-02	2.537098e-02	7.792991e-03	8.669259e-03	3.249864e-05	1.861770e-02	1.888208e-02	1.513055e-02	1.544831e-02	1.630961e-02	1.658655e-02	1.759410e-02	1.782694e-02	1.683357e-02	-1.397262e-02	-1.297241e-03	-1.210289e-01	-9.671537e-02	-6.049496e-02	-6.096566e-02	-6.097181e-02	-6.073185e-02	-8.311088e-02	-7.363929e-02	-5.721519e-02	-6.044195e-02	-6.014782e-02	-5.678702e-02	-5.541362e-02	-6.373723e-02	-1.144680e-01	-1.173338e-01	-8.671474e-02	-8.523565e-02	-9.545239e-02	-9.726120e-02	-9.861042e-02	-4.912424e-02	-5.052359e-02	-5.112573e-02	-4.941193e-02	-4.910415e-02	-5.386063e-02	-5.010609e-02	-4.960792e-02	-4.896571e-02	-4.904939e-02	-4.966630e-02	-5.010755e-02	-5.168302e-02	-5.240516e-02	-5.463702e-02	-5.549270e-02	-5.936241e-02	-6.000403e-02	-5.629585e-02	-5.708964e-02	-9.077394e-02	-9.189440e-02	-9.297400e-02	-9.389551e-02	-1.058865e-01	-1.211045e-01	-1.198060e-01	3.584240e-02	3.655189e-02	2.236088e-02	2.291256e-02	-4.656495e-02	-1.171763e-01	-1.049309e-01	-1.078837e-01	-7.805050e-02	-8.131506e-02	-5.603218e-02	-5.921540e-02	-6.129346e-02	-5.910095e-02	2.675906e-02	2.743824e-02	5.836907e-03	3.441871e-03	1.710254e-02	6.947082e-05	1.676985e-02	1.501439e-02	3.166421e-02	2.022238e-02	4.629424e-02	-1.024713e-01	-9.414648e-02	-6.804388e-02	-4.023913e-02	-1.115462e-01	-2.313599e-01	-2.103310e-01	1.511168e-01	6.346946e-03	3.038550e-03	-1.233826e-02	1.049079e-02	4.846925e-02	1.038409e-01	-4.927709e-02	2.555354e-01	-1.449531e-03	2.733088e-02	8.670273e-04	2.802893e-02	1.967587e-03	3.833937e-02	-3.706532e-05	1.572154e-02	3.716598e-02	2.658594e-02	1.148260e-01	9.240870e-04	-8.125904e-02	-5.038767e-02	-6.185499e-02	-4.659115e-02	-1.239463e-01	-5.049103e-02	-6.480692e-02	-4.573229e-02	-7.596419e-02	-9.458915e-02	-2.304263e-01	2.641770e-03	-2.628793e-02	-8.677857e-02	-1.902192e-02	6.320543e-02	1.001904e-02	-8.739357e-03	1.269024e-02	1.807711e-02	4.075418e-03	-6.464965e-02	-4.559673e-02	-4.466682e-02	-4.617425e-02	-8.719495e-02	-6.476273e-02	-4.907179e-02	-4.807299e-02	-5.175186e-02	-6.189355e-02	-6.910026e-02	-8.375704e-02	2.516167e-02	2.588800e-02	1.368845e-02	-7.741904e-02	-7.691701e-02	-7.615333e-02	-1.420941e-01	-5.076181e-02	-3.324855e-02	-1.855952e-03	-4.642392e-03	5.052667e-03	2.284177e-01	2.562916e-01	6.754217e-02	9.390186e-02	-4.873684e-02	1.772530e-02	-5.038279e-02	3.511012e-02	3.606469e-02	3.961163e-02	4.101836e-02	8.900496e-03	9.485358e-03	4.253951e-02	4.433943e-02	5.620425e-02	5.945170e-02	8.560713e-02	3.014480e-02	3.098053e-02	1.297833e-01	1.848750e-02	1.884743e-02	1.704239e-02	1.739198e-02	5.948509e-03	5.082130e-02	5.333573e-02	1.206035e-02	1.238014e-02	2.077138e-02	2.130275e-02	7.258551e-02	7.857936e-02	2.879851e-02	2.951880e-02	1.093180e-02	1.134465e-02	1.173382e-02	2.190668e-02	2.249805e-02	6.786710e-03	7.559015e-03	8.274805e-03	1.593975e-02	1.622464e-02	1.646232e-02	1.295046e-02	1.321093e-02	1.347393e-02	1.394232e-02	1.413468e-02	1.526014e-02	1.546209e-02	1.438118e-02	-9.931816e-02	-5.070739e-02	-5.078400e-02	-7.182571e-02	-5.074033e-02	-5.069191e-02	-5.079139e-02	-4.867900e-02	-5.321552e-02	-9.676975e-02	-9.835839e-02	-6.670725e-02	-6.791785e-02	-7.820713e-02	-7.980048e-02	-8.158828e-02	-4.498052e-02	-5.163157e-02	-5.018653e-02	-4.729241e-02	-4.655698e-02	-4.602040e-02	-4.510191e-02	-4.499642e-02	-4.482510e-02	-4.469562e-02	-4.470140e-02	-4.484080e-02	-4.523896e-02	-4.548735e-02	-4.583427e-02	-4.699843e-02	-4.979494e-02	-5.007754e-02	-4.746400e-02	-4.788224e-02	-4.840064e-02	-7.023175e-02	-7.144205e-02	-7.274145e-02	-7.397621e-02	-7.506597e-02	-9.948035e-02	-9.870217e-02	3.250684e-02	3.333877e-02	3.415856e-02	1.925501e-02	1.977037e-02	-9.673128e-02	-9.301641e-02	-8.619174e-02	-8.896759e-02	-9.187490e-02	-5.747847e-02	-4.565975e-02	-4.222298e-02	-4.193105e-02	-5.934717e-02	-5.706566e-02	-5.508525e-02	2.315404e-02	2.379197e-02	2.448683e-02	1.458155e-02	1.482354e-02	-4.101389e-04	9.433945e-03	-1.085738e-01	-7.726891e-02	1.836578e-02	-1.287254e-02	1.587023e-01	4.459066e-02	4.683848e-02	5.310101e-03	-9.422893e-02	-4.327523e-02	8.701568e-04	-6.313180e-02	6.028896e-05	-6.230584e-02	-1.002387e-01	-2.416661e-02	-4.167916e-02	-2.972161e-02	-9.065452e-02	1.013980e-01	2.985254e-02	1.107322e-02	3.670109e-03	1.474856e-02	9.103644e-03	1.568627e-02	1.301705e-02	-8.226850e-02	-4.280327e-02	-5.953358e-02	-5.709908e-02	-4.099882e-02	-6.033308e-02	-4.973132e-02	8.832847e-02	-7.806258e-02	3.546352e-02	-1.478169e-01	-8.793221e-02	1.128967e-01	6.543459e-02	2.791375e-03	2.455117e-02	-8.401152e-04	2.504734e-02	2.605049e-02	1.874286e-03	9.588387e-02	1.050408e-03	-4.248437e-02	-4.368024e-02	-3.543283e-02	-1.848499e-02	-5.392364e-02	-4.105369e-02	-4.574974e-02	-3.077897e-02	-4.127215e-02	-4.614187e-02	2.315048e-02	2.361696e-02	-7.278255e-02	-4.415945e-02	-3.588506e-02	-1.751640e-04	-3.425264e-03	4.538316e-03	6.138069e-02	8.144166e-02	-4.232715e-02	3.332614e-02	3.428403e-02	3.663530e-02	3.795257e-02	8.282355e-03	8.712651e-03	3.930848e-02	4.088754e-02	4.272353e-02	5.459613e-02	5.777921e-02	2.823698e-02	2.882766e-02	1.032048e-01	1.610778e-02	1.653281e-02	1.498239e-02	1.537795e-02	4.922854e-02	5.173759e-02	1.059747e-02	1.076813e-02	1.867273e-02	7.007977e-02	7.542734e-02	2.663326e-02	2.728840e-02	9.767994e-03	1.002709e-02	1.037819e-02	1.940499e-02	1.976284e-02	6.015926e-03	6.672348e-03	7.290431e-03	7.825414e-03	1.365552e-02	1.391892e-02	1.415495e-02	1.444979e-02	1.121261e-02	1.146195e-02	1.162248e-02	1.184642e-02	1.200323e-02	1.344463e-02	1.320563e-02	1.221979e-02	-4.353983e-02	-6.885814e-02	-6.539155e-02	-4.357531e-02	-4.347554e-02	-4.350011e-02	-4.346143e-02	-4.269504e-02	-7.879579e-02	-7.912264e-02	-5.148186e-02	-5.278936e-02	-6.161815e-02	-6.340190e-02	-6.516437e-02	-6.730104e-02	-4.930614e-02	-4.793345e-02	-4.671522e-02	-4.483295e-02	-4.407882e-02	-4.334740e-02	-4.289262e-02	-4.180673e-02	-4.166602e-02	-4.154867e-02	-4.117086e-02	-4.074242e-02	-4.104789e-02	-4.068337e-02	-4.110834e-02	-4.079399e-02	-4.132725e-02	-4.301743e-02	-4.350579e-02	-4.142840e-02	-4.213690e-02	-4.190612e-02	-4.262869e-02	-5.349424e-02	-5.449090e-02	-5.550812e-02	-5.690877e-02	-5.811687e-02	-5.921739e-02	-7.927648e-02	-7.921103e-02	3.055275e-02	3.136528e-02	3.234171e-02	1.680019e-02	1.744289e-02	1.770805e-02	-7.825726e-02	-7.549776e-02	-7.045114e-02	-6.972281e-02	-7.239247e-02	-7.486908e-02	-7.677893e-02	-4.079767e-02	-3.728801e-02	-3.264158e-02	-2.956602e-02	-5.096033e-02	-5.482793e-02	-5.289154e-02	2.055846e-02	2.096114e-02	2.181083e-02	2.225097e-02	1.239560e-02	1.262009e-02	1.279204e-02	2.761850e-03	-9.508161e-02	5.869822e-02	-1.588374e-01	2.033108e-03	2.385844e-02	8.492076e-03	1.265767e-03	-6.857336e-02	2.782485e-04	4.904827e-03	9.656062e-03	-4.900619e-02	-4.456295e-02	-2.680203e-02	-1.322959e-02	-8.624956e-03	-7.169022e-03	-8.810339e-03	2.900794e-05	9.757022e-02	-2.088440e-02	6.227457e-02	8.058014e-02	4.531356e-02	2.785135e-02	1.308134e-02	-8.444719e-02	-4.774909e-02	-5.264489e-02	-3.842165e-02	-3.843644e-02	-3.744026e-02	-3.802275e-02	-3.817526e-02	1.643228e-02	-2.147506e-02	-8.042570e-02	8.237454e-03	-1.694036e-01	-7.216613e-02	-6.446567e-03	1.729324e-01	1.847118e-01	4.348271e-02	5.472848e-03	-1.319750e-03	-5.105281e-02	5.124836e-04	-5.699816e-02	-2.234050e-02	-3.335903e-02	3.462979e-02	3.509123e-03	1.175092e-02	1.140070e-02	-7.595106e-02	-3.769947e-02	-5.476717e-02	7.515655e-02	2.235065e-02	-1.787279e-02	-2.492015e-02	-2.908263e-02	-3.577806e-02	2.097399e-02	-3.784733e-02	-3.183621e-02	-3.372503e-03	4.222332e-03	3.200601e-02	3.319361e-02	3.418788e-02	3.557641e-02	7.956282e-03	7.670127e-03	3.668563e-02	3.823436e-02	3.955411e-02	4.127158e-02	5.253207e-02	5.547126e-02	2.616438e-02	8.535526e-02	1.422901e-02	1.449927e-02	1.352727e-02	1.369365e-02	4.749152e-02	4.986716e-02	9.269026e-03	9.581862e-03	6.623856e-02	7.056109e-02	2.481160e-02	8.648554e-03	9.009622e-03	9.220282e-03	1.740381e-02	5.990636e-03	6.502514e-03	6.940740e-03	7.350890e-03	1.181416e-02	1.218546e-02	1.226748e-02	1.268916e-02	1.287032e-02	9.944799e-03	9.981260e-03	1.027652e-02	1.030584e-02	1.060707e-02	-6.526409e-02	-6.224088e-02	-5.951061e-02	-3.885221e-02	-3.827915e-02	-3.864914e-02	-3.813515e-02	-3.845200e-02	-6.190153e-02	-6.148175e-02	-3.802772e-02	-4.154721e-02	-5.164664e-02	-5.257897e-02	-5.446453e-02	-4.610326e-02	-4.511311e-02	-4.393385e-02	-4.323607e-02	-4.219528e-02	-4.160626e-02	-4.077384e-02	-4.005939e-02	-3.909734e-02	-3.872346e-02	-3.763064e-02	-3.741837e-02	-3.736629e-02	-3.764084e-02	-3.784408e-02	-4.158502e-02	-4.321813e-02	-4.296782e-02	-4.491334e-02	-4.516149e-02	-4.620550e-02	-4.758888e-02	-6.154595e-02	-6.212307e-02	2.902662e-02	3.014962e-02	3.099392e-02	1.483147e-02	1.554774e-02	-6.220035e-02	-6.039186e-02	-5.646274e-02	-5.668710e-02	-5.899140e-02	-6.091723e-02	-6.189546e-02	-6.200764e-02	-3.717349e-02	-3.576680e-02	-3.205087e-02	-2.594394e-02	-5.076922e-02	-4.919207e-02	1.849878e-02	1.969083e-02	1.065315e-02	1.098199e-02	1.102135e-02	1.134861e-02	1.870304e-01	-1.720722e-01	2.292678e-03	-9.548184e-03	8.368198e-02	5.797138e-02	-6.915715e-02	-1.727089e-02	-5.400884e-02	9.589356e-02	6.423362e-02	-4.107466e-03	5.161089e-03	2.942705e-03	-1.929340e-02	-8.182677e-02	-3.219073e-02	-2.068683e-02	3.536872e-03	5.509333e-02	1.412489e-02	-6.606830e-02	1.029685e-02	4.352597e-02	4.105636e-02	1.706241e-02	7.608661e-03	8.668700e-03	4.773487e-04	1.197499e-02	7.290554e-03	7.494743e-03	-4.376432e-02	-6.083808e-02	-4.533692e-02	-1.379803e-02	-3.669341e-02	5.237553e-02	-1.573246e-01	-6.333406e-02	-7.698025e-03	-1.994530e-03	6.793020e-02	2.224728e-02	-3.396625e-02	-3.455309e-02	-7.275163e-02	-1.304851e-03	-9.363514e-02	-5.390817e-03	1.725441e-01	5.540019e-03	1.466142e-03	1.753538e-03	-3.390749e-02	4.666367e-03	-5.211330e-02	-5.041408e-02	-3.395185e-02	-1.673757e-02	-2.377992e-02	2.095168e-02	-2.799763e-02	-2.417711e-02	4.114288e-03	3.144441e-02	3.380823e-02	7.060575e-03	3.638208e-02	3.836704e-02	4.985534e-02	7.217897e-02	1.262516e-02	4.542819e-02	4.754648e-02	8.375184e-03	6.095825e-02	2.337430e-02	2.486577e-02	7.967166e-03	8.150018e-03	1.498707e-02	5.925676e-03	6.238828e-03	6.609593e-03	6.876065e-03	1.070110e-02	1.120636e-02	1.147979e-02	8.939566e-03	9.235730e-03	-5.840430e-02	-5.612607e-02	-3.454467e-02	-3.422232e-02	-4.744444e-02	-3.120209e-02	-4.566634e-02	-3.619912e-02	-4.298333e-02	-4.106043e-02	-3.939433e-02	-3.793834e-02	-3.693640e-02	-3.539321e-02	-3.467133e-02	-3.417316e-02	-3.385324e-02	-3.366911e-02	-3.361545e-02	-3.362447e-02	-3.365054e-02	-3.456468e-02	-3.618178e-02	-3.683863e-02	-3.899898e-02	-4.015710e-02	-4.727905e-02	-4.834512e-02	2.645917e-02	2.830028e-02	2.964301e-02	1.301217e-02	1.340317e-02	-4.909131e-02	-4.803179e-02	-4.499163e-02	-4.107291e-02	-4.748820e-02	-4.905177e-02	-5.012474e-02	-5.009790e-02	-4.905588e-02	-4.967563e-02	-3.224070e-02	-2.726900e-02	-4.909785e-02	-4.724117e-02	1.597580e-02	1.824758e-02	1.954290e-02	9.574929e-03	9.922461e-03	-7.417893e-02	1.541697e-01	1.525037e-01	-1.021905e-01	6.113298e-03	-6.415930e-02	-4.295895e-02	8.517063e-02	2.739595e-03	4.170044e-03	1.057720e-01	7.387393e-02	-2.442094e-02	-1.397284e-02	-5.096932e-03	-5.213202e-02	2.112808e-02	-2.216603e-02	-8.423922e-02	3.517568e-02	4.974371e-03	-3.832300e-02	-2.727064e-02	3.181653e-03	1.041572e-02	4.141174e-02	1.631676e-02	1.334426e-02	5.062281e-02	5.285754e-02	5.291324e-03	5.571122e-03	-1.166633e-01	-5.801561e-02	-6.029664e-02	-4.898605e-02	-1.155241e-02	-3.095418e-02	1.875841e-02	6.525142e-03	-1.423550e-01	-1.433183e-01	-7.510241e-03	4.846764e-02	-5.049908e-02	4.144049e-02	5.530804e-02	-1.647217e-02	3.729811e-03	1.256773e-02	-1.760943e-03	6.633369e-03	6.724656e-03	-5.588613e-02	-1.056865e-02	4.651043e-02	5.793184e-02	1.999635e-02	-5.490389e-03	1.227164e-01	6.338653e-03	1.768278e-03	2.679063e-03	-3.102342e-02	4.582469e-03	-4.766459e-02	-3.102910e-02	-1.408299e-02	-3.097729e-02	-2.164558e-02	-1.903564e-02	3.036097e-02	3.283222e-02	3.737611e-02	3.969927e-02	6.233637e-02	1.095948e-02	4.299464e-02	4.467502e-02	1.003999e-02	2.533195e-02	2.686662e-02	2.235391e-02	6.790215e-03	7.017095e-03	7.103139e-03	5.804642e-03	9.114008e-03	9.574831e-03	7.256731e-03	7.471112e-03	1.749043e-02	-5.395889e-02	-3.106032e-02	-3.107376e-02	-3.933495e-02	-4.146990e-02	-3.937808e-02	-3.416371e-02	-3.753257e-02	-3.606168e-02	-3.497781e-02	-3.345433e-02	-3.276165e-02	-3.216334e-02	-3.172378e-02	-3.141492e-02	-3.120025e-02	-3.107356e-02	-1.693819e-02	-2.370498e-02	-2.742508e-02	-2.955532e-0