# vtk DataFile Version 3.0
vtk output
ASCII
DATASET UNSTRUCTURED_GRID
POINTS 5233 float
9.997500e-01	-3.632909e-05	0.0	9.990000e-01	-1.452618e-04	0.0	9.977600e-01	-3.252008e-04	0.0	9.960200e-01	-5.774943e-04	0.0	9.937800e-01	-9.022942e-04	0.0	9.910500e-01	-1.298763e-03	0.0	9.878400e-01	-1.766726e-03	0.0	9.841300e-01	-2.311194e-03	0.0	9.799500e-01	-2.930640e-03	0.0	9.752800e-01	-3.631444e-03	0.0	9.701500e-01	-4.412625e-03	0.0	9.645400e-01	-5.280292e-03	0.0	9.584700e-01	-6.233365e-03	0.0	9.519400e-01	-7.272227e-03	0.0	9.449600e-01	-8.393908e-03	0.0	9.375400e-01	-9.593773e-03	0.0	9.296900e-01	-1.086609e-02	0.0	9.214000e-01	-1.220804e-02	0.0	9.127000e-01	-1.361074e-02	0.0	9.035800e-01	-1.507272e-02	0.0	8.940600e-01	-1.658877e-02	0.0	8.841500e-01	-1.815610e-02	0.0	8.738500e-01	-1.977361e-02	0.0	8.631800e-01	-2.143627e-02	0.0	8.521600e-01	-2.313752e-02	0.0	8.407700e-01	-2.487471e-02	0.0	8.290500e-01	-2.663345e-02	0.0	8.170100e-01	-2.840162e-02	0.0	8.046400e-01	-3.016792e-02	0.0	7.919700e-01	-3.191393e-02	0.0	7.790100e-01	-3.362378e-02	0.0	7.657800e-01	-3.528073e-02	0.0	7.522800e-01	-3.687177e-02	0.0	7.385200e-01	-3.838440e-02	0.0	7.245300e-01	-3.980643e-02	0.0	7.103200e-01	-4.113073e-02	0.0	6.958900e-01	-4.235375e-02	0.0	6.812700e-01	-4.347212e-02	0.0	6.664700e-01	-4.448693e-02	0.0	6.515000e-01	-4.540154e-02	0.0	6.363800e-01	-4.622067e-02	0.0	6.211300e-01	-4.695082e-02	0.0	6.057600e-01	-4.760016e-02	0.0	5.902800e-01	-4.817747e-02	0.0	5.747100e-01	-4.869148e-02	0.0	5.590600e-01	-4.915119e-02	0.0	5.433600e-01	-4.956464e-02	0.0	5.276100e-01	-4.993996e-02	0.0	5.118400e-01	-5.028359e-02	0.0	4.960500e-01	-5.060149e-02	0.0	4.802700e-01	-5.089775e-02	0.0	4.645100e-01	-5.117554e-02	0.0	4.487800e-01	-5.143670e-02	0.0	4.331100e-01	-5.168146e-02	0.0	4.175000e-01	-5.190932e-02	0.0	4.019700e-01	-5.211839e-02	0.0	3.865400e-01	-5.230586e-02	0.0	3.712300e-01	-5.246816e-02	0.0	3.560400e-01	-5.260130e-02	0.0	3.409900e-01	-5.270061e-02	0.0	3.261100e-01	-5.276113e-02	0.0	3.114000e-01	-5.277790e-02	0.0	2.968700e-01	-5.274582e-02	0.0	2.825500e-01	-5.265996e-02	0.0	2.684500e-01	-5.251559e-02	0.0	2.545700e-01	-5.230801e-02	0.0	2.409400e-01	-5.203324e-02	0.0	2.275700e-01	-5.168749e-02	0.0	2.144700e-01	-5.126729e-02	0.0	2.016600e-01	-5.076993e-02	0.0	1.891400e-01	-5.019238e-02	0.0	1.769300e-01	-4.953284e-02	0.0	1.650400e-01	-4.878952e-02	0.0	1.534900e-01	-4.796177e-02	0.0	1.422900e-01	-4.704883e-02	0.0	1.314400e-01	-4.604934e-02	0.0	1.209500e-01	-4.496296e-02	0.0	1.108500e-01	-4.379208e-02	0.0	1.011300e-01	-4.253503e-02	0.0	9.181000e-02	-4.119389e-02	0.0	8.290000e-02	-3.976997e-02	0.0	7.440000e-02	-3.826304e-02	0.0	6.633000e-02	-3.667657e-02	0.0	5.869000e-02	-3.501058e-02	0.0	5.149000e-02	-3.326708e-02	0.0	4.474000e-02	-3.144844e-02	0.0	3.844000e-02	-2.955433e-02	0.0	3.260000e-02	-2.758711e-02	0.0	2.723000e-02	-2.554977e-02	0.0	2.232000e-02	-2.343708e-02	0.0	1.790000e-02	-2.126113e-02	0.0	1.395000e-02	-1.901092e-02	0.0	1.049000e-02	-1.669561e-02	0.0	7.520000e-03	-1.431461e-02	0.0	5.040000e-03	-1.186637e-02	0.0	3.050000e-03	-9.347302e-03	0.0	1.560000e-03	-6.769269e-03	0.0	5.600000e-04	-4.108233e-03	0.0	6.000000e-05	-1.363608e-03	0.0	0.000000e+00	0.000000e+00	0.0	6.000000e-05	1.350236e-03	0.0	5.600000e-04	4.050826e-03	0.0	1.560000e-03	6.663226e-03	0.0	3.050000e-03	9.195473e-03	0.0	5.040000e-03	1.167583e-02	0.0	7.520000e-03	1.409653e-02	0.0	1.049000e-02	1.646478e-02	0.0	1.395000e-02	1.878581e-02	0.0	1.790000e-02	2.106403e-02	0.0	2.232000e-02	2.329392e-02	0.0	2.723000e-02	2.549065e-02	0.0	3.260000e-02	2.764558e-02	0.0	3.844000e-02	2.976800e-02	0.0	4.474000e-02	3.185849e-02	0.0	5.149000e-02	3.391797e-02	0.0	5.869000e-02	3.595015e-02	0.0	6.633000e-02	3.795531e-02	0.0	7.440000e-02	3.993367e-02	0.0	8.290000e-02	4.188739e-02	0.0	9.181000e-02	4.381361e-02	0.0	1.011300e-01	4.571359e-02	0.0	1.108500e-01	4.758588e-02	0.0	1.209500e-01	4.942683e-02	0.0	1.314400e-01	5.123782e-02	0.0	1.422900e-01	5.301272e-02	0.0	1.534900e-01	5.474871e-02	0.0	1.650400e-01	5.644398e-02	0.0	1.769300e-01	5.809472e-02	0.0	1.891400e-01	5.969553e-02	0.0	2.016600e-01	6.124223e-02	0.0	2.144700e-01	6.272926e-02	0.0	2.275700e-01	6.415328e-02	0.0	2.409400e-01	6.550849e-02	0.0	2.545700e-01	6.679020e-02	0.0	2.684500e-01	6.799357e-02	0.0	2.825500e-01	6.911218e-02	0.0	2.968700e-01	7.014214e-02	0.0	3.114000e-01	7.107860e-02	0.0	3.261100e-01	7.191555e-02	0.0	3.409900e-01	7.264840e-02	0.0	3.560400e-01	7.327286e-02	0.0	3.712300e-01	7.378330e-02	0.0	3.865400e-01	7.417483e-02	0.0	4.019700e-01	7.444303e-02	0.0	4.175000e-01	7.458295e-02	0.0	4.331100e-01	7.458992e-02	0.0	4.487800e-01	7.445955e-02	0.0	4.645100e-01	7.418745e-02	0.0	4.802700e-01	7.376991e-02	0.0	4.960500e-01	7.320341e-02	0.0	5.118400e-01	7.248482e-02	0.0	5.276100e-01	7.161270e-02	0.0	5.433600e-01	7.058503e-02	0.0	5.590600e-01	6.940265e-02	0.0	5.747100e-01	6.806549e-02	0.0	5.902800e-01	6.657731e-02	0.0	6.057600e-01	6.494175e-02	0.0	6.211300e-01	6.316504e-02	0.0	6.363800e-01	6.125402e-02	0.0	6.515000e-01	5.921698e-02	0.0	6.664700e-01	5.706516e-02	0.0	6.812700e-01	5.481151e-02	0.0	6.958900e-01	5.246892e-02	0.0	7.103200e-01	5.005129e-02	0.0	7.245300e-01	4.757686e-02	0.0	7.385200e-01	4.505941e-02	0.0	7.522800e-01	4.251466e-02	0.0	7.657800e-01	3.996213e-02	0.0	7.790100e-01	3.741749e-02	0.0	7.919700e-01	3.489399e-02	0.0	8.046400e-01	3.240819e-02	0.0	8.170100e-01	2.997405e-02	0.0	8.290500e-01	2.760884e-02	0.0	8.407700e-01	2.532127e-02	0.0	8.521600e-01	2.312328e-02	0.0	8.631800e-01	2.103157e-02	0.0	8.738500e-01	1.905016e-02	0.0	8.841500e-01	1.718895e-02	0.0	8.940600e-01	1.545535e-02	0.0	9.035800e-01	1.385019e-02	0.0	9.127000e-01	1.237271e-02	0.0	9.214000e-01	1.102010e-02	0.0	9.296900e-01	9.781662e-03	0.0	9.375400e-01	8.650401e-03	0.0	9.449600e-01	7.612208e-03	0.0	9.519400e-01	6.656126e-03	0.0	9.584700e-01	5.772587e-03	0.0	9.645400e-01	4.954359e-03	0.0	9.701500e-01	4.195689e-03	0.0	9.752800e-01	3.496291e-03	0.0	9.799500e-01	2.852720e-03	0.0	9.841300e-01	2.270023e-03	0.0	9.878400e-01	1.747228e-03	0.0	9.910500e-01	1.290667e-03	0.0	9.937800e-01	8.994899e-04	0.0	9.960200e-01	5.767420e-04	0.0	9.977600e-01	3.250644e-04	0.0	9.990000e-01	1.452495e-04	0.0	9.997500e-01	3.632890e-05	0.0	1.000000e+00	0.000000e+00	0.0	1.984229e+01	2.506660e+00	0.0	1.937166e+01	4.973800e+00	0.0	1.859553e+01	7.362490e+00	0.0	1.752613e+01	9.635070e+00	0.0	1.618034e+01	1.175571e+01	0.0	1.457937e+01	1.369094e+01	0.0	1.274848e+01	1.541027e+01	0.0	1.071654e+01	1.688656e+01	0.0	8.515590e+00	1.809654e+01	0.0	6.180340e+00	1.902113e+01	0.0	3.747630e+00	1.964575e+01	0.0	1.255810e+00	1.996053e+01	0.0	-1.255810e+00	1.996053e+01	0.0	-3.747630e+00	1.964574e+01	0.0	-6.180340e+00	1.902113e+01	0.0	-8.515590e+00	1.809654e+01	0.0	-1.071654e+01	1.688656e+01	0.0	-1.274848e+01	1.541026e+01	0.0	-1.457937e+01	1.369094e+01	0.0	-1.618034e+01	1.175570e+01	0.0	-1.752613e+01	9.635070e+00	0.0	-1.859553e+01	7.362490e+00	0.0	-1.937166e+01	4.973800e+00	0.0	-1.984229e+01	2.506660e+00	0.0	-2.000000e+01	0.000000e+00	0.0	-1.984229e+01	-2.506670e+00	0.0	-1.937166e+01	-4.973800e+00	0.0	-1.859553e+01	-7.362490e+00	0.0	-1.752613e+01	-9.635080e+00	0.0	-1.618034e+01	-1.175571e+01	0.0	-1.457937e+01	-1.369094e+01	0.0	-1.274848e+01	-1.541027e+01	0.0	-1.071653e+01	-1.688656e+01	0.0	-8.515580e+00	-1.809654e+01	0.0	-6.180340e+00	-1.902113e+01	0.0	-3.747620e+00	-1.964575e+01	0.0	-1.255810e+00	-1.996053e+01	0.0	1.255810e+00	-1.996053e+01	0.0	3.747630e+00	-1.964574e+01	0.0	6.180340e+00	-1.902113e+01	0.0	8.515590e+00	-1.809654e+01	0.0	1.071654e+01	-1.688656e+01	0.0	1.274848e+01	-1.541026e+01	0.0	1.457937e+01	-1.369094e+01	0.0	1.618034e+01	-1.175570e+01	0.0	1.752614e+01	-9.635070e+00	0.0	1.859553e+01	-7.362490e+00	0.0	1.937166e+01	-4.973790e+00	0.0	1.984229e+01	-2.506660e+00	0.0	2.000000e+01	0.000000e+00	0.0	6.093892e-02	-4.285144e-02	0.0	6.600410e-01	-5.844939e-02	0.0	4.255297e-01	8.863687e-02	0.0	6.904536e-01	6.677179e-02	0.0	3.791252e-01	-6.656260e-02	0.0	9.994589e-01	-7.258723e-04	0.0	9.985402e-01	-1.320872e-03	0.0	7.738251e-01	-4.634860e-02	0.0	6.897588e-01	-5.606349e-02	0.0	-1.367138e-03	6.233161e-03	0.0	7.467650e-01	-4.997311e-02	0.0	5.838090e-01	8.122916e-02	0.0	9.927651e-01	-3.598793e-03	0.0	9.898616e-01	-4.480982e-03	0.0	5.994275e-01	7.958836e-02	0.0	7.187102e-01	-5.322760e-02	0.0	-1.548094e-03	7.305687e-04	0.0	9.864673e-01	-5.441292e-03	0.0	9.825916e-01	-6.470515e-03	0.0	-1.358171e-03	-6.336027e-03	0.0	6.449375e-01	-5.947833e-02	0.0	8.244939e-01	-3.842106e-02	0.0	7.997632e-01	-4.246746e-02	0.0	3.482204e-01	8.660152e-02	0.0	8.478910e-01	-3.434813e-02	0.0	2.468390e-01	7.862192e-02	0.0	8.698983e-01	-3.032503e-02	0.0	1.001408e-02	2.079824e-02	0.0	8.904116e-01	-2.642047e-02	0.0	7.722818e-02	-4.682321e-02	0.0	9.093595e-01	-2.267674e-02	0.0	-1.865007e-03	-3.138557e-03	0.0	9.422484e-01	-1.580904e-02	0.0	9.266631e-01	-1.912583e-02	0.0	1.806769e-02	-2.637803e-02	0.0	4.256782e-01	-6.623083e-02	0.0	8.590773e-01	-3.232303e-02	0.0	9.560748e-01	-1.276843e-02	0.0	9.782290e-01	-7.589010e-03	0.0	9.680882e-01	-1.002215e-02	0.0	1.584746e-01	-5.900398e-02	0.0	9.000881e-01	-2.452666e-02	0.0	7.604299e-01	-4.820093e-02	0.0	9.971132e-01	-2.058079e-03	0.0	5.988429e-01	-6.197001e-02	0.0	4.413590e-01	-6.604490e-02	0.0	5.361230e-01	-6.418097e-02	0.0	4.728882e-01	-6.557080e-02	0.0	5.045102e-01	-6.495629e-02	0.0	4.886866e-01	-6.528085e-02	0.0	1.251652e-01	-5.514410e-02	0.0	2.799454e-02	-3.148915e-02	0.0	3.945492e-01	-6.649285e-02	0.0	4.640172e-02	-3.855324e-02	0.0	4.100682e-01	-6.638196e-02	0.0	3.187978e-01	-6.636792e-02	0.0	3.486567e-01	-6.657206e-02	0.0	3.367005e-02	-3.391128e-02	0.0	2.896281e-01	-6.592628e-02	0.0	9.346743e-01	-1.743395e-02	0.0	1.470184e-01	-5.780948e-02	0.0	1.948400e-01	-6.200962e-02	0.0	8.600599e-02	-4.867547e-02	0.0	1.048018e-01	-5.210645e-02	0.0	5.676108e-01	-6.321237e-02	0.0	1.702734e-01	-6.010386e-02	0.0	6.143295e-01	-6.122907e-02	0.0	8.803501e-01	-2.835590e-02	0.0	2.280418e-02	-2.897635e-02	0.0	9.951875e-01	-2.803889e-03	0.0	6.796488e-03	-1.820110e-02	0.0	1.798544e-02	2.626178e-02	0.0	9.182203e-01	-2.087471e-02	0.0	9.49388
[...]
POINT_DATA 5233

SCALARS Conservative_1 float 1
LOOKUP_TABLE default
1.471968e-02	6.720924e-03	5.313686e-03	4.274678e-03	3.615275e-03	3.119503e-03	2.732979e-03	2.426038e-03	2.182125e-03	1.987622e-03	1.833852e-03	1.713708e-03	1.621825e-03	1.553460e-03	1.504913e-03	1.471441e-03	1.451648e-03	1.437748e-03	1.430005e-03	1.428516e-03	1.438229e-03	1.453998e-03	1.478571e-03	1.513926e-03	1.557209e-03	1.611371e-03	1.670660e-03	1.737366e-03	1.805216e-03	1.873116e-03	1.938589e-03	1.994079e-03	2.042781e-03	2.073804e-03	2.093927e-03	2.094927e-03	2.084071e-03	2.055459e-03	2.017025e-03	1.964014e-03	1.905639e-03	1.837744e-03	1.768799e-03	1.695276e-03	1.624302e-03	1.552690e-03	1.485958e-03	1.421699e-03	1.363167e-03	1.309179e-03	1.260947e-03	1.217586e-03	1.179059e-03	1.146290e-03	1.116890e-03	1.092907e-03	1.071144e-03	1.053372e-03	1.036503e-03	1.022240e-03	1.007590e-03	9.939881e-04	9.785212e-04	9.630102e-04	9.442231e-04	9.240378e-04	8.993337e-04	8.717652e-04	8.389015e-04	8.016502e-04	7.585848e-04	7.093047e-04	6.537845e-04	5.906288e-04	5.202463e-04	4.415237e-04	3.535667e-04	2.566526e-04	1.491714e-04	3.110092e-05	-9.922782e-05	-2.421184e-04	-3.990234e-04	-5.708280e-04	-7.595268e-04	-9.656333e-04	-1.191920e-03	-1.438601e-03	-1.707571e-03	-1.998022e-03	-2.308153e-03	-2.624519e-03	-2.947077e-03	-3.269103e-03	-3.406715e-03	-3.197412e-03	-2.927410e-03	-2.690235e-03	-2.253551e-03	-1.826249e-03	-1.453244e-03	-5.180276e-04	5.866742e-04	7.864204e-04	2.015925e-03	5.965872e-03	9.796490e-03	1.075409e-02	9.728576e-03	8.479360e-03	7.493369e-03	6.632999e-03	5.841743e-03	5.133325e-03	4.513592e-03	3.984549e-03	3.528550e-03	3.136265e-03	2.798839e-03	2.500286e-03	2.241665e-03	2.007412e-03	1.793252e-03	1.596733e-03	1.418437e-03	1.259046e-03	1.115699e-03	9.832181e-04	8.639387e-04	7.537152e-04	6.577138e-04	5.726290e-04	4.958787e-04	4.253400e-04	3.547110e-04	2.909350e-04	2.394307e-04	2.220519e-04	2.446589e-04	3.278876e-04	4.934890e-04	7.558203e-04	1.012554e-03	1.156663e-03	1.158852e-03	1.089435e-03	1.006207e-03	9.212665e-04	8.323092e-04	7.293710e-04	6.179360e-04	4.955399e-04	3.711099e-04	2.403305e-04	1.031273e-04	-3.527101e-05	-1.813076e-04	-3.251166e-04	-4.701986e-04	-6.160910e-04	-7.579839e-04	-9.013633e-04	-1.038219e-03	-1.175990e-03	-1.305954e-03	-1.436088e-03	-1.557905e-03	-1.679353e-03	-1.792449e-03	-1.905261e-03	-2.010277e-03	-2.115820e-03	-2.213356e-03	-2.311950e-03	-2.406807e-03	-2.499313e-03	-2.591037e-03	-2.681297e-03	-2.776485e-03	-2.873833e-03	-2.981527e-03	-3.090760e-03	-3.202026e-03	-3.315800e-03	-3.442834e-03	-3.582968e-03	-3.741797e-03	-3.919943e-03	-4.122329e-03	-4.352396e-03	-4.616379e-03	-4.920980e-03	-5.276058e-03	-5.693421e-03	-6.191005e-03	-6.793451e-03	-7.676756e-03	-8.502220e-03	-1.488876e-02	-5.827880e-04	-9.374814e-06	-9.092877e-06	-8.675549e-06	-8.242365e-06	-7.653173e-06	-6.965818e-06	-6.085750e-06	-5.026331e-06	-3.753272e-06	-2.334604e-06	-4.447237e-07	1.856284e-06	4.495701e-06	7.036756e-06	8.792824e-06	1.017290e-05	1.079356e-05	1.084779e-05	1.048552e-05	1.001277e-05	9.637819e-06	8.122486e-06	9.046138e-06	1.613935e-05	1.096206e-05	9.307369e-06	1.109951e-05	9.310439e-06	7.598875e-07	5.696053e-07	3.054014e-07	-3.976585e-07	-8.380822e-07	-1.444140e-06	-2.194907e-06	-3.012168e-06	-3.467113e-06	-4.340683e-06	-4.638091e-06	-5.692935e-06	-7.031700e-06	-7.958946e-06	-8.692775e-06	-9.206211e-06	-9.553435e-06	-9.775719e-06	-9.878240e-06	-9.846914e-06	-9.694836e-06	-9.599925e-06	-6.080236e-04	1.756146e-03	1.329079e-03	-7.597740e-04	9.248377e-04	1.112111e-02	7.622140e-03	1.758538e-03	1.826776e-03	-4.764043e-04	1.826937e-03	2.889499e-04	3.572361e-03	3.029418e-03	1.427889e-04	1.852024e-03	-1.736127e-03	2.629366e-03	2.325973e-03	-2.753533e-03	1.708175e-03	1.558178e-03	1.661626e-03	9.994406e-04	1.468471e-03	9.667442e-04	1.406632e-03	8.668212e-03	1.382125e-03	-3.011562e-04	1.393838e-03	-2.469405e-03	1.462025e-03	1.414854e-03	-2.185441e-03	9.916954e-04	1.432957e-03	1.567694e-03	2.090391e-03	1.762755e-03	4.774094e-04	1.384526e-03	1.798651e-03	5.517252e-03	1.530147e-03	1.020948e-03	1.285141e-03	1.091197e-03	1.179806e-03	1.133499e-03	2.563512e-04	-1.651272e-03	9.440764e-04	-9.745533e-04	9.667427e-04	8.610301e-04	8.912066e-04	-1.407754e-03	8.289391e-04	1.433520e-03	4.119658e-04	6.338493e-04	-1.675285e-04	6.501525e-05	1.404165e-03	5.361807e-04	1.593289e-03	1.389029e-03	-1.910910e-03	4.344305e-03	-3.016311e-03	8.068378e-03	1.403994e-03	1.505693e-03	1.906195e-03	7.999313e-05	1.509755e-03	7.666389e-04	1.343730e-03	1.846371e-03	1.712827e-03	1.655609e-04	7.092255e-04	1.467580e-03	1.797420e-03	-7.836118e-04	-3.232925e-03	-2.466176e-03	9.069404e-04	5.880203e-04	1.556651e-02	7.402305e-04	-4.561943e-05	8.450878e-04	7.903917e-04	1.053804e-03	1.846437e-03	-1.327693e-03	-2.965919e-03	7.012053e-04	-2.048662e-03	6.588238e-03	4.285858e-03	5.325453e-03	2.239649e-03	1.362259e-03	-7.994113e-03	8.254748e-04	1.135379e-03	-4.217422e-03	-3.802351e-03	-2.665074e-03	1.044776e-03	1.278431e-03	1.322571e-03	-3.114097e-03	-2.892622e-03	3.176226e-03	-4.474240e-03	-3.631721e-03	-3.346877e-03	2.654488e-03	3.862055e-03	8.099670e-04	9.095364e-04	1.484917e-03	7.910169e-04	1.213411e-03	1.365217e-03	1.741953e-03	2.058409e-03	-1.593638e-04	1.269388e-03	1.098284e-03	-4.624095e-04	4.334623e-04	-1.318615e-03	-1.046491e-03	-1.813602e-03	-1.574341e-03	-2.251467e-03	-2.039270e-03	-2.776781e-03	-2.457040e-03	-3.481644e-03	-3.005861e-03	-3.995660e-03	-2.355185e-03	-2.560002e-03	-1.926879e-03	-2.145795e-03	-1.447550e-03	-1.694907e-03	-9.036789e-04	-1.183439e-03	-3.105369e-04	-6.111284e-04	5.704084e-04	-7.866785e-06	1.177345e-03	1.029225e-03	1.607177e-03	1.371878e-03	4.772351e-03	1.892356e-03	8.917571e-03	5.938974e-03	6.742635e-04	1.956092e-03	1.651632e-03	1.608828e-03	8.756807e-04	1.230717e-03	1.163050e-04	7.265106e-03	5.887854e-03	2.898871e-03	3.494780e-03	8.549182e-04	2.437297e-03	-4.776401e-03	-5.136739e-03	7.823378e-04	-5.580925e-03	-6.146798e-03	8.563511e-04	1.184441e-03	-3.227248e-03	-1.711017e-02	-9.852582e-03	-1.276767e-02	1.652158e-03	-1.182372e-03	-6.905382e-03	9.397067e-04	-3.203901e-03	-2.741729e-03	-4.477510e-04	3.383265e-04	8.104261e-04	3.535258e-03	-6.967072e-04	-1.324019e-03	6.796927e-04	1.603190e-03	1.304736e-03	-2.779304e-03	5.952738e-04	1.582568e-03	1.540081e-03	2.837875e-03	7.323722e-04	1.333633e-03	1.393314e-03	-2.358729e-04	-2.756241e-03	5.483692e-04	-2.315489e-03	1.555327e-03	3.035885e-04	1.618293e-03	1.512353e-03	8.991372e-04	-3.598416e-04	8.008271e-04	1.289288e-03	1.504603e-03	5.436975e-03	6.853978e-03	-3.382032e-04	-2.079518e-03	2.659102e-03	-4.908052e-04	1.957856e-03	-2.404988e-03	-5.344103e-03	1.512829e-03	1.124311e-03	-3.468731e-03	-2.511988e-03	-5.877860e-03	-3.630778e-03	-4.567782e-03	1.466528e-03	1.400369e-03	1.526626e-03	2.841564e-03	1.549375e-03	5.101251e-04	7.209153e-03	2.202243e-03	4.546506e-03	-4.028137e-03	-6.563849e-03	-2.618218e-03	3.639824e-04	-6.849065e-03	-8.568146e-03	-7.507389e-03	2.276271e-03	-3.602288e-04	-2.991433e-03	-2.239939e-03	-1.938419e-03	-2.069094e-03	3.865526e-03	-6.438860e-04	5.972127e-03	3.973534e-03	1.537690e-03	1.147231e-03	2.469620e-03	1.298199e-03	4.412387e-04	3.319265e-03	-2.551063e-03	8.698948e-04	1.561459e-03	1.359570e-03	1.325549e-03	1.311851e-03	1.290648e-03	-4.957990e-04	1.294283e-03	1.322298e-03	1.416196e-03	-1.595413e-03	1.475288e-03	1.659711e-03	2.188647e-03	1.586140e-04	1.594188e-03	1.571561e-03	4.890647e-03	9.312191e-04	9.668945e-04	1.007356e-03	-1.827429e-03	8.208531e-04	8.448443e-04	7.477942e-04	-1.171856e-03	1.342875e-03	1.373287e-03	2.348151e-04	-1.224659e-04	1.200868e-03	1.362774e-03	1.794642e-03	1.966802e-03	1.618816e-03	1.613468e-03	-1.980705e-05	7.455022e-05	1.253476e-03	1.309968e-03	-9.821204e-04	-8.057164e-04	-2.555034e-03	7.648039e-04	7.815842e-04	4.190292e-04	4.673331e-04	5.811150e-04	6.109284e-04	6.987469e-04	7.153616e-04	6.364271e-04	-1.728076e-03	-3.088448e-03	4.966289e-03	-4.914995e-03	1.005735e-03	1.236114e-03	1.331126e-03	1.411800e-03	-4.274718e-03	-3.816099e-03	-2.960772e-03	1.472183e-03	1.514314e-03	1.607903e-03	-2.843940e-03	-3.323472e-03	3.830171e-03	4.166922e-03	1.410296e-03	1.363452e-03	2.073955e-03	2.341521e-03	2.492984e-03	-1.608186e-03	-1.080483e-03	-9.403061e-04	-1.484768e-03	-1.967422e-03	-2.729305e-03	-2.298923e-03	-2.189458e-03	-1.849392e-03	-1.732918e-03	-1.353080e-03	-1.220976e-03	-7.924303e-04	-6.449627e-04	-1.803049e-04	-2.469817e-05	7.386109e-04	8.764062e-04	1.332368e-04	2.892784e-04	1.593945e-03	1.671766e-03	1.757156e-03	1.853604e-03	7.311695e-03	5.423062e-03	5.899876e-03	1.467843e-03	1.428441e-03	1.050669e-03	1.098463e-03	8.832326e-05	6.377558e-03	3.046205e-03	3.275694e-03	1.328996e-03	1.311121e-03	1.643618e-03	1.621414e-03	-3.194805e-03	-3.073942e-03	1.417410e-03	1.465347e-03	-1.376091e-03	-2.968878e-03	6.600195e-04	-2.571245e-03	6.906248e-04	5.579081e-04	1.345173e-03	9.799171e-04	1.202375e-03	-5.234209e-03	-4.847356e-03	-3.583196e-03	3.844689e-04	-5.651455e-03	-1.063059e-02	-9.912337e-03	4.311398e-03	-1.593484e-03	-1.954195e-03	-1.847110e-03	-3.029172e-04	1.226570e-03	2.727042e-03	8.333177e-04	8.117736e-03	-2.752943e-03	1.407622e-03	-2.900516e-03	1.414108e-03	-2.168573e-03	1.185707e-03	-2.574723e-03	6.150041e-04	1.198995e-03	1.389757e-03	3.084978e-03	-2.380863e-03	-4.234981e-03	1.236788e-03	-3.264647e-03	-1.119231e-04	-6.210505e-03	1.358835e-03	1.748716e-03	1.944712e-03	2.384685e-03	3.863798e-03	-1.066660e-02	-2.753253e-03	-9.166042e-04	6.006687e-03	-1.407058e-03	1.509539e-03	-4.162759e-04	-2.067598e-03	1.964223e-04	7.927955e-04	-1.739496e-03	4.549661e-03	-1.898823e-03	-1.416650e-03	-2.703214e-04	-4.519335e-03	-3.415770e-03	-2.437780e-03	-2.331910e-03	1.863866e-03	1.748403e-03	1.890264e-03	3.044871e-03	1.335799e-03	1.367407e-03	3.903727e-04	5.761531e-03	2.498193e-03	-3.986546e-03	-7.000200e-03	2.341033e-03	-4.818630e-04	-2.890531e-03	-2.350969e-03	-1.533644e-03	6.978488e-03	8.071408e-03	1.621551e-03	2.408507e-03	6.830913e-04	7.639170e-04	1.708132e-03	1.240354e-03	1.216313e-03	1.177736e-03	1.175774e-03	-6.760425e-04	-5.408560e-04	1.176824e-03	1.187213e-03	1.351498e-03	1.420365e-03	2.148748e-03	1.390130e-03	1.374029e-03	3.581253e-03	8.262095e-04	8.590356e-04	7.116467e-04	7.372497e-04	-1.339147e-03	1.258041e-03	1.297870e-03	6.217210e-05	1.323966e-04	1.026404e-03	1.072195e-03	1.760958e-03	1.935487e-03	1.417550e-03	1.410536e-03	-1.987151e-04	-1.031365e-04	-1.564868e-05	1.120916e-03	1.167461e-03	-1.155656e-03	-9.830516e-04	-8.222009e-04	6.316876e-04	6.512851e-04	6.690822e-04	2.532676e-04	3.041499e-04	3.508128e-04	4.278612e-04	4.585758e-04	5.786089e-04	5.959837e-04	4.887988e-04	4.706347e-03	1.462565e-03	1.549432e-03	-3.772652e-03	1.614399e-03	1.662635e-03	1.689315e-03	1.746204e-03	-2.767168e-03	4.122439e-03	4.407370e-03	1.777133e-03	1.830453e-03	2.619381e-03	2.748520e-03	2.890157e-03	-8.741375e-04	-2.654917e-03	-2.542420e-03	-2.227958e-03	-2.118407e-03	-2.010409e-03	-1.777422e-03	-1.664975e-03	-1.544034e-03	-1.288647e-03	-1.154842e-03	-1.016783e-03	-7.281917e-04	-5.787734e-04	-4.254203e-04	4.632354e-05	9.753587e-04	1.109237e-03	2.064778e-04	3.650981e-04	5.224249e-04	1.958870e-03	2.030716e-03	2.106196e-03	2.190567e-03	2.281137e-03	5.014741e-03	5.323470e-03	1.321200e-03	1.294175e-03	1.264834e-03	8.955203e-04	9.384926e-04	5.618635e-03	5.867770e-03	3.219019e-03	3.411603e-03	3.627308e-03	1.790053e-03	1.817085e-03	1.915436e-03	1.970225e-03	-3.129759e-03	-3.002659e-03	-2.885209e-03	1.215057e-03	1.258363e-03	1.300542e-03	5.137638e-04	5.381794e-04	-2.555302e-03	-3.632603e-04	-5.617224e-03	-4.099420e-03	8.974584e-04	-1.822384e-03	4.552879e-03	1.103097e-03	1.134535e-03	-1.463413e-03	-4.927084e-03	1.498900e-03	-2.691515e-03	4.604022e-03	-2.514401e-03	-3.333990e-03	-5.225015e-03	-9.340921e-04	5.288429e-05	-3.768881e-04	-5.268046e-03	2.135693e-03	1.201075e-03	9.991866e-05	-1.829593e-03	5.999039e-04	-4.663038e-04	6.762904e-04	4.538809e-04	-4.346136e-03	9.981404e-04	-3.185398e-03	-3.050686e-03	-1.250009e-03	2.737311e-03	2.061581e-03	2.186768e-03	4.110281e-03	1.081507e-03	-7.269723e-03	-4.622062e-03	2.936897e-03	1.528916e-03	-2.015522e-03	1.249209e-03	-2.634328e-03	1.241974e-03	1.265338e-03	-2.196942e-03	2.415963e-03	-2.368271e-03	-1.738416e-03	1.392691e-03	2.191075e-03	-1.408200e-03	3.650127e-03	-9.947466e-05	-2.262417e-03	2.228048e-03	2.125414e-03	2.076962e-03	1.208272e-03	1.214906e-03	-3.874810e-03	2.100308e-03	5.686919e-04	-2.716880e-03	-2.417920e-03	-1.640181e-03	1.425588e-03	1.980242e-03	8.403236e-04	1.111299e-03	1.091294e-03	1.070822e-03	1.068326e-03	-7.011411e-04	-5.790639e-04	1.066688e-03	1.073360e-03	1.088527e-03	1.270697e-03	1.339892e-03	1.242716e-03	1.208676e-03	2.633490e-03	7.091413e-04	7.429428e-04	6.208084e-04	6.498996e-04	1.171204e-03	1.214326e-03	-2.596119e-05	3.582566e-05	9.277490e-04	1.654057e-03	1.804770e-03	1.255453e-03	1.239662e-03	-2.669937e-04	-1.813482e-04	-9.723618e-05	9.816979e-04	1.011453e-03	-1.293913e-03	-1.130380e-03	-9.739943e-04	-8.320438e-04	5.137524e-04	5.349947e-04	5.542496e-04	5.768928e-04	1.500616e-04	2.016329e-04	2.431640e-04	2.845815e-04	3.179238e-04	4.951147e-04	4.735691e-04	3.517281e-04	1.603981e-03	-3.675250e-03	-3.496381e-03	1.676134e-03	1.735330e-03	1.776206e-03	1.803520e-03	1.830098e-03	4.309984e-03	4.499584e-03	2.093099e-03	2.145721e-03	2.851987e-03	2.968347e-03	3.094826e-03	3.231354e-03	-2.571948e-03	-2.465457e-03	-2.360993e-03	-2.159776e-03	-2.056877e-03	-1.949300e-03	-1.842845e-03	-1.616547e-03	-1.495861e-03	-1.388135e-03	-1.128131e-03	-9.835483e-04	-8.533558e-04	-7.023407e-04	-5.640141e-04	-4.071359e-04	-2.603540e-04	1.259139e-03	1.125128e-03	2.140733e-04	3.700281e-04	5.314898e-04	6.915736e-04	2.218820e-03	2.293275e-03	2.372156e-03	2.454362e-03	2.538718e-03	2.634013e-03	4.675677e-03	4.836824e-03	1.172752e-03	1.146593e-03	1.129275e-03	7.721750e-04	8.186854e-04	8.473997e-04	4.972323e-03	5.042676e-03	4.976418e-03	3.381079e-03	3.545014e-03	3.728893e-03	3.918541e-03	1.875756e-03	1.959811e-03	2.075634e-03	2.189154e-03	-2.684417e-03	-2.921607e-03	-2.805359e-03	1.066293e-03	1.092211e-03	1.144439e-03	1.162754e-03	3.796395e-04	4.077874e-04	4.301416e-04	-2.018902e-03	-5.048021e-03	1.312966e-03	-7.917559e-03	-2.168436e-03	1.119590e-03	-4.096944e-04	-2.297315e-03	-3.722983e-03	-2.479837e-03	-1.539207e-03	1.796724e-05	3.007829e-03	2.892016e-03	-2.760810e-04	-1.774789e-03	-2.090739e-03	-2.189154e-03	-2.088155e-03	-2.551175e-03	2.397117e-03	2.368445e-03	1.399493e-03	1.884889e-03	1.052607e-03	1.082043e-03	5.249351e-04	-4.550679e-03	-2.520130e-03	-2.838742e-03	1.161952e-03	1.400769e-03	1.109975e-04	-1.036122e-03	1.580711e-03	7.950090e-04	2.305664e-03	-4.339851e-03	-5.038767e-04	-8.225573e-03	-3.912642e-03	-2.248236e-03	4.860489e-03	5.420817e-03	1.031673e-03	-1.390964e-03	-2.521978e-03	3.686298e-03	-2.392636e-03	-3.092753e-03	-8.848905e-04	-3.050826e-03	-4.287023e-04	-1.865619e-03	4.002855e-04	3.687659e-04	-4.111366e-03	9.560214e-04	-2.964206e-03	1.734245e-03	1.099478e-03	-1.362156e-03	2.376680e-03	2.334387e-03	2.271463e-03	1.064309e-03	1.764921e-03	6.078835e-04	-2.426483e-03	-1.701667e-03	1.003859e-03	1.002763e-03	9.853884e-04	9.878829e-04	-6.078274e-04	-7.173507e-04	9.758413e-04	9.852183e-04	9.881979e-04	9.977748e-04	1.177262e-03	1.239554e-03	1.103756e-03	2.012897e-03	6.139223e-04	6.378175e-04	5.572019e-04	5.755212e-04	1.084484e-03	1.125756e-03	-9.940919e-05	-2.876774e-05	1.499819e-03	1.612370e-03	1.108349e-03	-3.210329e-04	-2.312404e-04	-1.641523e-04	8.688753e-04	-1.242921e-03	-1.096077e-03	-9.598703e-04	-8.349707e-04	4.126740e-04	4.427401e-04	4.553260e-04	4.865724e-04	5.035012e-04	7.968429e-05	1.155250e-04	1.685997e-04	1.959980e-04	2.412671e-04	-3.546717e-03	-3.383386e-03	-3.233284e-03	1.678032e-03	1.738598e-03	1.798647e-03	1.832543e-03	1.866121e-03	4.190914e-03	4.280051e-03	2.270840e-03	2.283865e-03	3.102956e-03	3.218171e-03	3.353506e-03	-2.402851e-03	-2.312425e-03	-2.207087e-03	-2.120570e-03	-2.009294e-03	-1.914346e-03	-1.799246e-03	-1.643389e-03	-1.461594e-03	-1.286603e-03	-7.650513e-04	-4.843007e-04	-1.911480e-04	4.183030e-04	7.198754e-04	2.350387e-03	2.423272e-03	2.515655e-03	2.600755e-03	2.686301e-03	2.787399e-03	2.888579e-03	4.338924e-03	4.379786e-03	1.046419e-03	1.040856e-03	1.022667e-03	6.681561e-04	7.245072e-04	4.388847e-03	4.319476e-03	4.116193e-03	3.489444e-03	3.631301e-03	3.785804e-03	3.932761e-03	4.064728e-03	1.894475e-03	1.944271e-03	2.009397e-03	2.146422e-03	-2.724684e-03	-2.618587e-03	9.422803e-04	1.009532e-03	2.637099e-04	3.037292e-04	3.204343e-04	3.547480e-04	5.566773e-03	-8.273848e-03	-2.089558e-03	-2.050197e-03	1.478513e-03	1.228838e-03	-3.853816e-03	-1.285338e-03	-2.978082e-03	2.306971e-03	1.367158e-03	-2.403957e-03	-1.440672e-03	-1.973712e-03	2.230446e-03	-4.907610e-03	1.433371e-03	-8.098631e-04	-1.848030e-03	1.167712e-03	6.586181e-04	-3.681434e-03	3.165728e-04	9.643914e-04	9.350739e-04	8.498116e-04	-4.416489e-04	-1.530431e-05	-2.330682e-03	4.790764e-04	-6.231550e-04	-5.303892e-04	3.212223e-03	-3.380169e-03	-2.403225e-03	-1.680719e-03	2.285143e-03	1.112374e-03	-7.798548e-03	-3.524970e-03	-2.154218e-03	-2.421590e-03	1.453814e-03	9.800095e-04	1.482931e-03	1.658279e-03	-4.047240e-03	-1.780718e-03	-5.019335e-03	-2.332325e-03	4.911819e-03	-1.314405e-03	-2.228438e-03	-2.169065e-03	1.060446e-03	-1.573660e-03	-2.861895e-03	-2.752365e-03	1.273821e-03	2.410244e-03	2.406645e-03	9.693064e-04	5.558461e-04	-2.056224e-04	-1.717068e-03	9.125759e-04	9.036773e-04	-7.253451e-04	9.048962e-04	9.064969e-04	1.064111e-03	1.559685e-03	5.322607e-04	9.893160e-04	1.023547e-03	-1.202426e-04	1.293770e-03	9.742778e-04	9.659331e-04	-3.153862e-04	-2.186085e-04	7.224821e-04	-1.183375e-03	-1.050584e-03	-9.358355e-04	-8.300193e-04	3.616366e-04	4.082644e-04	4.371113e-04	7.302603e-05	1.484856e-04	-3.238702e-03	-3.104731e-03	1.783284e-03	1.862197e-03	4.008755e-03	2.397877e-03	3.377287e-03	-1.273349e-03	-2.210926e-03	-2.015580e-03	-1.812875e-03	-1.617527e-03	-1.443991e-03	-1.064580e-03	-8.128155e-04	-5.473551e-04	-2.740358e-04	9.318354e-06	2.997210e-04	5.885902e-04	8.470838e-04	2.506585e-03	2.678902e-03	2.839610e-03	2.947349e-03	3.061460e-03	3.970469e-03	3.921993e-03	9.494319e-04	9.418481e-04	9.197325e-04	5.673487e-04	6.025427e-04	3.843474e-03	3.682499e-03	3.392004e-03	2.946907e-03	3.510901e-03	3.636720e-03	3.761767e-03	3.871814e-03	3.944111e-03	4.041903e-03	1.926633e-03	2.012601e-03	-2.663101e-03	-2.544289e-03	7.880682e-04	9.033429e-04	9.438215e-04	2.134944e-04	2.681552e-04	-4.142200e-03	4.311052e-03	4.289717e-03	-5.396662e-03	-9.552774e-04	-3.671966e-03	-3.371629e-03	1.940254e-03	-1.965912e-03	-1.686454e-03	2.639234e-03	1.584620e-03	4.533038e-04	-1.579344e-03	-2.341388e-03	-2.949065e-03	8.676151e-04	2.007032e-03	-4.611235e-03	8.161273e-04	-1.451038e-03	3.729168e-03	1.134777e-03	-1.892427e-03	3.850775e-04	8.656925e-04	7.822266e-04	6.153245e-04	9.914375e-04	1.027908e-03	-1.342950e-03	-1.232925e-03	-6.214287e-03	-3.321890e-03	-3.463176e-03	-2.738891e-03	2.416347e-03	9.141624e-04	8.522072e-04	-7.203129e-04	-7.084225e-03	-7.162720e-03	-2.195786e-03	9.569158e-04	-2.840642e-03	-1.111248e-04	1.073867e-03	-1.193971e-03	-1.790055e-03	5.593191e-04	-2.248679e-03	-6.355475e-04	-5.507391e-04	-3.191214e-03	-1.973474e-03	9.283043e-04	1.120878e-03	8.658752e-04	-2.332735e-03	3.018110e-03	-8.151880e-04	-2.075649e-03	-1.997328e-03	1.325178e-03	-1.572193e-03	-2.643528e-03	1.120614e-03	2.232970e-03	6.857193e-04	-1.805403e-04	-7.314616e-04	8.091495e-04	8.096745e-04	8.281550e-04	8.499913e-04	1.227799e-03	4.315371e-04	8.825071e-04	9.029725e-04	3.496013e-04	8.377347e-04	8.279223e-04	8.631867e-04	-4.534994e-04	-3.460917e-04	-2.587026e-04	-1.110842e-03	2.576262e-04	3.065614e-04	-1.616815e-04	-6.629424e-05	8.236389e-04	-3.067331e-03	1.518544e-03	1.675023e-03	3.321299e-03	-2.179559e-03	-1.985166e-03	-1.258947e-03	-1.785265e-03	-1.594583e-03	-1.421405e-03	-1.082438e-03	-8.695301e-04	-6.288537e-04	-3.764937e-04	-1.158120e-04	1.544148e-04	4.275436e-04	2.463685e-03	2.498902e-03	2.623281e-03	2.800468e-03	2.986786e-03	3.168736e-03	3.570515e-03	3.456446e-03	8.524758e-04	8.159933e-04	4.784971e-04	5.147278e-04	3.324186e-03	3.116523e-03	2.788218e-03	2.348155e-03	1.793568e-03	3.445936e-03	3.553042e-03	3.650595e-03	3.716706e-03