# vtk DataFile Version 3.0
vtk output
ASCII
DATASET UNSTRUCTURED_GRID
POINTS 5233 float
9.997500e-01	-3.632909e-05	0.0	9.990000e-01	-1.452618e-04	0.0	9.977600e-01	-3.252008e-04	0.0	9.960200e-01	-5.774943e-04	0.0	9.937800e-01	-9.022942e-04	0.0	9.910500e-01	-1.298763e-03	0.0	9.878400e-01	-1.766726e-03	0.0	9.841300e-01	-2.311194e-03	0.0	9.799500e-01	-2.930640e-03	0.0	9.752800e-01	-3.631444e-03	0.0	9.701500e-01	-4.412625e-03	0.0	9.645400e-01	-5.280292e-03	0.0	9.584700e-01	-6.233365e-03	0.0	9.519400e-01	-7.272227e-03	0.0	9.449600e-01	-8.393908e-03	0.0	9.375400e-01	-9.593773e-03	0.0	9.296900e-01	-1.086609e-02	0.0	9.214000e-01	-1.220804e-02	0.0	9.127000e-01	-1.361074e-02	0.0	9.035800e-01	-1.507272e-02	0.0	8.940600e-01	-1.658877e-02	0.0	8.841500e-01	-1.815610e-02	0.0	8.738500e-01	-1.977361e-02	0.0	8.631800e-01	-2.143627e-02	0.0	8.521600e-01	-2.313752e-02	0.0	8.407700e-01	-2.487471e-02	0.0	8.290500e-01	-2.663345e-02	0.0	8.170100e-01	-2.840162e-02	0.0	8.046400e-01	-3.016792e-02	0.0	7.919700e-01	-3.191393e-02	0.0	7.790100e-01	-3.362378e-02	0.0	7.657800e-01	-3.528073e-02	0.0	7.522800e-01	-3.687177e-02	0.0	7.385200e-01	-3.838440e-02	0.0	7.245300e-01	-3.980643e-02	0.0	7.103200e-01	-4.113073e-02	0.0	6.958900e-01	-4.235375e-02	0.0	6.812700e-01	-4.347212e-02	0.0	6.664700e-01	-4.448693e-02	0.0	6.515000e-01	-4.540154e-02	0.0	6.363800e-01	-4.622067e-02	0.0	6.211300e-01	-4.695082e-02	0.0	6.057600e-01	-4.760016e-02	0.0	5.902800e-01	-4.817747e-02	0.0	5.747100e-01	-4.869148e-02	0.0	5.590600e-01	-4.915119e-02	0.0	5.433600e-01	-4.956464e-02	0.0	5.276100e-01	-4.993996e-02	0.0	5.118400e-01	-5.028359e-02	0.0	4.960500e-01	-5.060149e-02	0.0	4.802700e-01	-5.089775e-02	0.0	4.645100e-01	-5.117554e-02	0.0	4.487800e-01	-5.143670e-02	0.0	4.331100e-01	-5.168146e-02	0.0	4.175000e-01	-5.190932e-02	0.0	4.019700e-01	-5.211839e-02	0.0	3.865400e-01	-5.230586e-02	0.0	3.712300e-01	-5.246816e-02	0.0	3.560400e-01	-5.260130e-02	0.0	3.409900e-01	-5.270061e-02	0.0	3.261100e-01	-5.276113e-02	0.0	3.114000e-01	-5.277790e-02	0.0	2.968700e-01	-5.274582e-02	0.0	2.825500e-01	-5.265996e-02	0.0	2.684500e-01	-5.251559e-02	0.0	2.545700e-01	-5.230801e-02	0.0	2.409400e-01	-5.203324e-02	0.0	2.275700e-01	-5.168749e-02	0.0	2.144700e-01	-5.126729e-02	0.0	2.016600e-01	-5.076993e-02	0.0	1.891400e-01	-5.019238e-02	0.0	1.769300e-01	-4.953284e-02	0.0	1.650400e-01	-4.878952e-02	0.0	1.534900e-01	-4.796177e-02	0.0	1.422900e-01	-4.704883e-02	0.0	1.314400e-01	-4.604934e-02	0.0	1.209500e-01	-4.496296e-02	0.0	1.108500e-01	-4.379208e-02	0.0	1.011300e-01	-4.253503e-02	0.0	9.181000e-02	-4.119389e-02	0.0	8.290000e-02	-3.976997e-02	0.0	7.440000e-02	-3.826304e-02	0.0	6.633000e-02	-3.667657e-02	0.0	5.869000e-02	-3.501058e-02	0.0	5.149000e-02	-3.326708e-02	0.0	4.474000e-02	-3.144844e-02	0.0	3.844000e-02	-2.955433e-02	0.0	3.260000e-02	-2.758711e-02	0.0	2.723000e-02	-2.554977e-02	0.0	2.232000e-02	-2.343708e-02	0.0	1.790000e-02	-2.126113e-02	0.0	1.395000e-02	-1.901092e-02	0.0	1.049000e-02	-1.669561e-02	0.0	7.520000e-03	-1.431461e-02	0.0	5.040000e-03	-1.186637e-02	0.0	3.050000e-03	-9.347302e-03	0.0	1.560000e-03	-6.769269e-03	0.0	5.600000e-04	-4.108233e-03	0.0	6.000000e-05	-1.363608e-03	0.0	0.000000e+00	0.000000e+00	0.0	6.000000e-05	1.350236e-03	0.0	5.600000e-04	4.050826e-03	0.0	1.560000e-03	6.663226e-03	0.0	3.050000e-03	9.195473e-03	0.0	5.040000e-03	1.167583e-02	0.0	7.520000e-03	1.409653e-02	0.0	1.049000e-02	1.646478e-02	0.0	1.395000e-02	1.878581e-02	0.0	1.790000e-02	2.106403e-02	0.0	2.232000e-02	2.329392e-02	0.0	2.723000e-02	2.549065e-02	0.0	3.260000e-02	2.764558e-02	0.0	3.844000e-02	2.976800e-02	0.0	4.474000e-02	3.185849e-02	0.0	5.149000e-02	3.391797e-02	0.0	5.869000e-02	3.595015e-02	0.0	6.633000e-02	3.795531e-02	0.0	7.440000e-02	3.993367e-02	0.0	8.290000e-02	4.188739e-02	0.0	9.181000e-02	4.381361e-02	0.0	1.011300e-01	4.571359e-02	0.0	1.108500e-01	4.758588e-02	0.0	1.209500e-01	4.942683e-02	0.0	1.314400e-01	5.123782e-02	0.0	1.422900e-01	5.301272e-02	0.0	1.534900e-01	5.474871e-02	0.0	1.650400e-01	5.644398e-02	0.0	1.769300e-01	5.809472e-02	0.0	1.891400e-01	5.969553e-02	0.0	2.016600e-01	6.124223e-02	0.0	2.144700e-01	6.272926e-02	0.0	2.275700e-01	6.415328e-02	0.0	2.409400e-01	6.550849e-02	0.0	2.545700e-01	6.679020e-02	0.0	2.684500e-01	6.799357e-02	0.0	2.825500e-01	6.911218e-02	0.0	2.968700e-01	7.014214e-02	0.0	3.114000e-01	7.107860e-02	0.0	3.261100e-01	7.191555e-02	0.0	3.409900e-01	7.264840e-02	0.0	3.560400e-01	7.327286e-02	0.0	3.712300e-01	7.378330e-02	0.0	3.865400e-01	7.417483e-02	0.0	4.019700e-01	7.444303e-02	0.0	4.175000e-01	7.458295e-02	0.0	4.331100e-01	7.458992e-02	0.0	4.487800e-01	7.445955e-02	0.0	4.645100e-01	7.418745e-02	0.0	4.802700e-01	7.376991e-02	0.0	4.960500e-01	7.320341e-02	0.0	5.118400e-01	7.248482e-02	0.0	5.276100e-01	7.161270e-02	0.0	5.433600e-01	7.058503e-02	0.0	5.590600e-01	6.940265e-02	0.0	5.747100e-01	6.806549e-02	0.0	5.902800e-01	6.657731e-02	0.0	6.057600e-01	6.494175e-02	0.0	6.211300e-01	6.316504e-02	0.0	6.363800e-01	6.125402e-02	0.0	6.515000e-01	5.921698e-02	0.0	6.664700e-01	5.706516e-02	0.0	6.812700e-01	5.481151e-02	0.0	6.958900e-01	5.246892e-02	0.0	7.103200e-01	5.005129e-02	0.0	7.245300e-01	4.757686e-02	0.0	7.385200e-01	4.505941e-02	0.0	7.522800e-01	4.251466e-02	0.0	7.657800e-01	3.996213e-02	0.0	7.790100e-01	3.741749e-02	0.0	7.919700e-01	3.489399e-02	0.0	8.046400e-01	3.240819e-02	0.0	8.170100e-01	2.997405e-02	0.0	8.290500e-01	2.760884e-02	0.0	8.407700e-01	2.532127e-02	0.0	8.521600e-01	2.312328e-02	0.0	8.631800e-01	2.103157e-02	0.0	8.738500e-01	1.905016e-02	0.0	8.841500e-01	1.718895e-02	0.0	8.940600e-01	1.545535e-02	0.0	9.035800e-01	1.385019e-02	0.0	9.127000e-01	1.237271e-02	0.0	9.214000e-01	1.102010e-02	0.0	9.296900e-01	9.781662e-03	0.0	9.375400e-01	8.650401e-03	0.0	9.449600e-01	7.612208e-03	0.0	9.519400e-01	6.656126e-03	0.0	9.584700e-01	5.772587e-03	0.0	9.645400e-01	4.954359e-03	0.0	9.701500e-01	4.195689e-03	0.0	9.752800e-01	3.496291e-03	0.0	9.799500e-01	2.852720e-03	0.0	9.841300e-01	2.270023e-03	0.0	9.878400e-01	1.747228e-03	0.0	9.910500e-01	1.290667e-03	0.0	9.937800e-01	8.994899e-04	0.0	9.960200e-01	5.767420e-04	0.0	9.977600e-01	3.250644e-04	0.0	9.990000e-01	1.452495e-04	0.0	9.997500e-01	3.632890e-05	0.0	1.000000e+00	0.000000e+00	0.0	1.984229e+01	2.506660e+00	0.0	1.937166e+01	4.973800e+00	0.0	1.859553e+01	7.362490e+00	0.0	1.752613e+01	9.635070e+00	0.0	1.618034e+01	1.175571e+01	0.0	1.457937e+01	1.369094e+01	0.0	1.274848e+01	1.541027e+01	0.0	1.071654e+01	1.688656e+01	0.0	8.515590e+00	1.809654e+01	0.0	6.180340e+00	1.902113e+01	0.0	3.747630e+00	1.964575e+01	0.0	1.255810e+00	1.996053e+01	0.0	-1.255810e+00	1.996053e+01	0.0	-3.747630e+00	1.964574e+01	0.0	-6.180340e+00	1.902113e+01	0.0	-8.515590e+00	1.809654e+01	0.0	-1.071654e+01	1.688656e+01	0.0	-1.274848e+01	1.541026e+01	0.0	-1.457937e+01	1.369094e+01	0.0	-1.618034e+01	1.175570e+01	0.0	-1.752613e+01	9.635070e+00	0.0	-1.859553e+01	7.362490e+00	0.0	-1.937166e+01	4.973800e+00	0.0	-1.984229e+01	2.506660e+00	0.0	-2.000000e+01	0.000000e+00	0.0	-1.984229e+01	-2.506670e+00	0.0	-1.937166e+01	-4.973800e+00	0.0	-1.859553e+01	-7.362490e+00	0.0	-1.752613e+01	-9.635080e+00	0.0	-1.618034e+01	-1.175571e+01	0.0	-1.457937e+01	-1.369094e+01	0.0	-1.274848e+01	-1.541027e+01	0.0	-1.071653e+01	-1.688656e+01	0.0	-8.515580e+00	-1.809654e+01	0.0	-6.180340e+00	-1.902113e+01	0.0	-3.747620e+00	-1.964575e+01	0.0	-1.255810e+00	-1.996053e+01	0.0	1.255810e+00	-1.996053e+01	0.0	3.747630e+00	-1.964574e+01	0.0	6.180340e+00	-1.902113e+01	0.0	8.515590e+00	-1.809654e+01	0.0	1.071654e+01	-1.688656e+01	0.0	1.274848e+01	-1.541026e+01	0.0	1.457937e+01	-1.369094e+01	0.0	1.618034e+01	-1.175570e+01	0.0	1.752614e+01	-9.635070e+00	0.0	1.859553e+01	-7.362490e+00	0.0	1.937166e+01	-4.973790e+00	0.0	1.984229e+01	-2.506660e+00	0.0	2.000000e+01	0.000000e+00	0.0	6.093892e-02	-4.285144e-02	0.0	6.600410e-01	-5.844939e-02	0.0	4.255297e-01	8.863687e-02	0.0	6.904536e-01	6.677179e-02	0.0	3.791252e-01	-6.656260e-02	0.0	9.994589e-01	-7.258723e-04	0.0	9.985402e-01	-1.320872e-03	0.0	7.738251e-01	-4.634860e-02	0.0	6.897588e-01	-5.606349e-02	0.0	-1.367138e-03	6.233161e-03	0.0	7.467650e-01	-4.997311e-02	0.0	5.838090e-01	8.122916e-02	0.0	9.927651e-01	-3.598793e-03	0.0	9.898616e-01	-4.480982e-03	0.0	5.994275e-01	7.958836e-02	0.0	7.187102e-01	-5.322760e-02	0.0	-1.548094e-03	7.305687e-04	0.0	9.864673e-01	-5.441292e-03	0.0	9.825916e-01	-6.470515e-03	0.0	-1.358171e-03	-6.336027e-03	0.0	6.449375e-01	-5.947833e-02	0.0	8.244939e-01	-3.842106e-02	0.0	7.997632e-01	-4.246746e-02	0.0	3.482204e-01	8.660152e-02	0.0	8.478910e-01	-3.434813e-02	0.0	2.468390e-01	7.862192e-02	0.0	8.698983e-01	-3.032503e-02	0.0	1.001408e-02	2.079824e-02	0.0	8.904116e-01	-2.642047e-02	0.0	7.722818e-02	-4.682321e-02	0.0	9.093595e-01	-2.267674e-02	0.0	-1.865007e-03	-3.138557e-03	0.0	9.422484e-01	-1.580904e-02	0.0	9.266631e-01	-1.912583e-02	0.0	1.806769e-02	-2.637803e-02	0.0	4.256782e-01	-6.623083e-02	0.0	8.590773e-01	-3.232303e-02	0.0	9.560748e-01	-1.276843e-02	0.0	9.782290e-01	-7.589010e-03	0.0	9.680882e-01	-1.002215e-02	0.0	1.584746e-01	-5.900398e-02	0.0	9.000881e-01	-2.452666e-02	0.0	7.604299e-01	-4.820093e-02	0.0	9.971132e-01	-2.058079e-03	0.0	5.988429e-01	-6.197001e-02	0.0	4.413590e-01	-6.604490e-02	0.0	5.361230e-01	-6.418097e-02	0.0	4.728882e-01	-6.557080e-02	0.0	5.045102e-01	-6.495629e-02	0.0	4.886866e-01	-6.528085e-02	0.0	1.251652e-01	-5.514410e-02	0.0	2.799454e-02	-3.148915e-02	0.0	3.945492e-01	-6.649285e-02	0.0	4.640172e-02	-3.855324e-02	0.0	4.100682e-01	-6.638196e-02	0.0	3.187978e-01	-6.636792e-02	0.0	3.486567e-01	-6.657206e-02	0.0	3.367005e-02	-3.391128e-02	0.0	2.896281e-01	-6.592628e-02	0.0	9.346743e-01	-1.743395e-02	0.0	1.470184e-01	-5.780948e-02	0.0	1.948400e-01	-6.200962e-02	0.0	8.600599e-02	-4.867547e-02	0.0	1.048018e-01	-5.210645e-02	0.0	5.676108e-01	-6.321237e-02	0.0	1.702734e-01	-6.010386e-02	0.0	6.143295e-01	-6.122907e-02	0.0	8.803501e-01	-2.835590e-02	0.0	2.280418e-02	-2.897635e-02	0.0	9.951875e-01	-2.803889e-03	0.0	6.796488e-03	-1.820110e-02	0.0	1.798544e-02	2.626178e-02	0.0	9.182203e-01	-2.087471e-02	0.0	9.49388
[...]
POINT_DATA 5233

SCALARS Conservative_1 float 1
LOOKUP_TABLE default
1.651116e-02	7.621733e-03	6.027781e-03	4.865164e-03	4.123919e-03	3.567358e-03	3.132790e-03	2.787481e-03	2.512099e-03	2.291858e-03	2.116564e-03	1.978507e-03	1.871348e-03	1.790114e-03	1.730471e-03	1.687511e-03	1.659443e-03	1.637983e-03	1.623117e-03	1.615296e-03	1.619838e-03	1.631542e-03	1.652709e-03	1.685533e-03	1.726549e-03	1.779243e-03	1.837185e-03	1.903310e-03	1.970508e-03	2.038027e-03	2.103136e-03	2.158060e-03	2.206282e-03	2.236223e-03	2.255179e-03	2.254359e-03	2.241598e-03	2.210594e-03	2.169718e-03	2.113807e-03	2.052686e-03	1.981671e-03	1.909863e-03	1.833235e-03	1.759501e-03	1.685095e-03	1.615897e-03	1.549218e-03	1.488537e-03	1.432533e-03	1.382546e-03	1.337582e-03	1.297601e-03	1.263643e-03	1.233069e-03	1.208215e-03	1.185541e-03	1.167083e-03	1.149460e-03	1.134681e-03	1.119416e-03	1.105350e-03	1.089298e-03	1.073316e-03	1.053916e-03	1.033237e-03	1.007856e-03	9.796846e-04	9.460244e-04	9.079539e-04	8.639386e-04	8.135990e-04	7.569331e-04	6.924550e-04	6.206561e-04	5.403723e-04	4.506677e-04	3.518725e-04	2.423269e-04	1.220006e-04	-1.077492e-05	-1.563419e-04	-3.161228e-04	-4.911181e-04	-6.832266e-04	-8.931102e-04	-1.123437e-03	-1.374621e-03	-1.648432e-03	-1.944295e-03	-2.260199e-03	-2.582478e-03	-2.912041e-03	-3.245101e-03	-3.379916e-03	-3.143257e-03	-2.865195e-03	-2.655151e-03	-2.258915e-03	-1.868514e-03	-1.531786e-03	-6.705226e-04	3.635071e-04	4.513596e-04	1.413315e-03	5.164223e-03	9.071858e-03	1.020825e-02	9.272412e-03	8.021646e-03	7.018605e-03	6.147743e-03	5.339643e-03	4.614634e-03	3.978989e-03	3.436695e-03	2.972321e-03	2.571065e-03	2.228807e-03	1.929020e-03	1.666234e-03	1.428550e-03	1.205691e-03	9.978013e-04	8.083586e-04	6.375843e-04	4.847125e-04	3.430224e-04	2.121900e-04	8.845704e-05	-2.431249e-05	-1.272277e-04	-2.182603e-04	-2.983937e-04	-3.714329e-04	-4.389442e-04	-5.028664e-04	-5.481552e-04	-5.647747e-04	-5.329985e-04	-4.520814e-04	-2.794894e-04	1.267180e-05	3.424810e-04	5.637577e-04	6.067077e-04	5.397206e-04	4.473345e-04	3.570191e-04	2.621890e-04	1.607933e-04	4.695505e-05	-6.895724e-05	-1.903328e-04	-3.174323e-04	-4.447540e-04	-5.805208e-04	-7.133663e-04	-8.475465e-04	-9.823555e-04	-1.113044e-03	-1.245781e-03	-1.371920e-03	-1.499657e-03	-1.619483e-03	-1.740388e-03	-1.853088e-03	-1.966335e-03	-2.071374e-03	-2.177117e-03	-2.275344e-03	-2.375101e-03	-2.467040e-03	-2.561130e-03	-2.652057e-03	-2.741418e-03	-2.831113e-03	-2.920177e-03	-3.015659e-03	-3.114171e-03	-3.225240e-03	-3.338950e-03	-3.455889e-03	-3.575985e-03	-3.710822e-03	-3.859800e-03	-4.028942e-03	-4.218466e-03	-4.433690e-03	-4.678031e-03	-4.958364e-03	-5.281586e-03	-5.658498e-03	-6.101351e-03	-6.629317e-03	-7.267138e-03	-8.204990e-03	-9.053984e-03	-1.593522e-02	-3.017108e-04	-1.088003e-05	-1.066497e-05	-1.030208e-05	-9.913277e-06	-9.377340e-06	-8.716529e-06	-7.854587e-06	-6.761297e-06	-5.361676e-06	-3.851538e-06	-1.900150e-06	5.179242e-07	3.293765e-06	6.047646e-06	8.062188e-06	9.588103e-06	1.039541e-05	1.054911e-05	1.026759e-05	9.936980e-06	9.796221e-06	8.301673e-06	9.736112e-06	1.821705e-05	1.209065e-05	1.063076e-05	1.320149e-05	1.139064e-05	1.758072e-06	1.858961e-06	1.798689e-06	1.172010e-06	7.980058e-07	1.715913e-07	-6.337306e-07	-1.610613e-06	-2.372280e-06	-3.551013e-06	-4.316855e-06	-5.626721e-06	-7.161711e-06	-8.301291e-06	-9.240944e-06	-9.939748e-06	-1.045463e-05	-1.081544e-05	-1.103713e-05	-1.111041e-05	-1.104534e-05	-1.103668e-05	-5.305173e-04	1.891899e-03	8.438160e-04	-1.063192e-03	1.028584e-03	1.247849e-02	8.582218e-03	1.908811e-03	1.967229e-03	-6.242676e-04	1.974662e-03	-7.975129e-05	4.070755e-03	3.463244e-03	-2.158581e-04	1.996548e-03	-1.787045e-03	3.014590e-03	2.673473e-03	-2.709815e-03	1.841446e-03	1.713808e-03	1.814344e-03	1.944972e-04	1.628143e-03	3.427121e-04	1.572265e-03	8.139339e-03	1.556410e-03	-2.184935e-04	1.580701e-03	-2.456877e-03	1.680305e-03	1.616147e-03	-2.136142e-03	1.097670e-03	1.595282e-03	1.808646e-03	2.407651e-03	2.035119e-03	5.727673e-04	1.564596e-03	1.947817e-03	6.240398e-03	1.655462e-03	1.127936e-03	1.401261e-03	1.200575e-03	1.292204e-03	1.244338e-03	3.481634e-04	-1.591983e-03	1.048435e-03	-9.033214e-04	1.071890e-03	9.629401e-04	9.939096e-04	-1.344089e-03	9.300913e-04	1.642812e-03	5.063048e-04	7.317013e-04	-8.264809e-05	1.537231e-04	1.524584e-03	6.324943e-04	1.721295e-03	1.558571e-03	-1.856380e-03	4.933029e-03	-2.985819e-03	7.706614e-03	1.598025e-03	1.734423e-03	2.198851e-03	-1.066462e-04	1.667154e-03	8.666047e-04	1.461976e-03	1.992681e-03	1.864343e-03	2.559063e-04	8.082763e-04	1.590449e-03	1.935690e-03	-7.090988e-04	-3.208515e-03	-2.422333e-03	1.010090e-03	6.851399e-04	1.737322e-02	8.397911e-04	4.128030e-05	9.465854e-04	8.907839e-04	1.161895e-03	1.989111e-03	-1.419052e-03	-2.911556e-03	3.013576e-04	-2.072302e-03	6.196693e-03	3.825356e-03	4.900477e-03	1.734227e-03	8.362479e-04	-8.564710e-03	4.148933e-04	6.899704e-04	-4.533654e-03	-4.092392e-03	-2.898327e-03	6.103474e-04	8.098982e-04	5.678443e-04	-3.362662e-03	-3.131965e-03	2.686341e-03	-4.806575e-03	-3.910852e-03	-3.608247e-03	2.157908e-03	3.388749e-03	1.732795e-04	2.798322e-04	9.337366e-04	1.116496e-04	7.586320e-04	7.635818e-04	1.208077e-03	1.544481e-03	-4.989980e-04	6.985924e-04	4.992633e-04	-7.834173e-04	5.465724e-05	-1.591254e-03	-1.333705e-03	-2.062957e-03	-1.834324e-03	-2.486580e-03	-2.280376e-03	-3.012566e-03	-2.689135e-03	-3.751318e-03	-3.249588e-03	-4.297904e-03	-2.588411e-03	-2.792131e-03	-2.171671e-03	-2.383470e-03	-1.713507e-03	-1.949206e-03	-1.198701e-03	-1.463004e-03	-6.407173e-04	-9.230628e-04	1.810750e-04	-3.570144e-04	5.932560e-04	4.158998e-04	1.064287e-03	8.117053e-04	4.328181e-03	1.368434e-03	8.521515e-03	5.532376e-03	7.727664e-04	1.398655e-03	1.906947e-03	1.762863e-03	9.779408e-04	1.344924e-03	-2.001215e-04	6.889123e-03	5.235541e-03	2.404893e-03	3.011629e-03	2.226412e-04	1.937549e-03	-5.127839e-03	-5.511155e-03	1.324082e-04	-5.984349e-03	-6.588070e-03	1.237093e-04	3.479215e-04	-3.481798e-03	-1.841506e-02	-1.056023e-02	-1.368912e-02	1.782716e-03	-1.114751e-03	-7.398899e-03	5.174028e-04	-3.166393e-03	-2.703217e-03	-3.675396e-04	4.314801e-04	9.111666e-04	3.126605e-03	-8.270882e-04	-1.412873e-03	7.712210e-04	1.729324e-03	1.486796e-03	-2.743575e-03	2.664815e-04	1.706717e-03	1.677444e-03	3.246343e-03	8.247096e-04	1.485096e-03	1.538993e-03	-1.550274e-04	-2.713544e-03	6.386801e-04	-2.269697e-03	1.797626e-03	3.913686e-04	1.746651e-03	1.632001e-03	9.957143e-04	-2.807162e-04	8.946110e-04	1.458185e-03	1.643782e-03	4.946352e-03	6.556776e-03	-6.177307e-04	-2.301868e-03	2.232634e-03	-7.631523e-04	1.493297e-03	-2.626640e-03	-5.730421e-03	8.460961e-04	7.483811e-04	-3.734061e-03	-2.735072e-03	-6.301371e-03	-3.906047e-03	-4.902457e-03	9.450835e-04	7.655415e-04	1.013748e-03	2.418685e-03	1.671179e-03	6.000333e-04	6.825735e-03	1.755018e-03	4.175481e-03	-4.328301e-03	-7.036305e-03	-2.843324e-03	4.523731e-04	-7.256017e-03	-9.189107e-03	-8.050233e-03	1.800766e-03	-5.370275e-04	-2.963107e-03	-2.248658e-03	-1.971503e-03	-2.018356e-03	4.469672e-03	-5.689414e-04	6.737823e-03	4.514025e-03	1.090706e-03	1.251791e-03	2.833718e-03	1.457275e-03	1.216010e-04	3.784220e-03	-2.529749e-03	9.655627e-04	1.150524e-03	1.507809e-03	7.814557e-04	1.466809e-03	1.454332e-03	-4.186422e-04	1.469330e-03	1.512086e-03	1.633034e-03	-1.536006e-03	1.703811e-03	1.918191e-03	2.517898e-03	2.446301e-04	1.727955e-03	1.707272e-03	5.534188e-03	1.028758e-03	1.065524e-03	1.107316e-03	-1.772189e-03	9.151359e-04	9.398484e-04	8.403420e-04	-1.105246e-03	1.540694e-03	1.579952e-03	3.217795e-04	-4.006901e-05	1.307348e-03	1.475336e-03	2.072384e-03	2.267680e-03	1.748986e-03	1.745684e-03	6.393736e-05	1.595494e-04	1.361771e-03	1.420490e-03	-9.124425e-04	-7.332529e-04	-2.513988e-03	8.577367e-04	8.748517e-04	5.080519e-04	5.568470e-04	6.717024e-04	7.018326e-04	7.905737e-04	8.073769e-04	7.275141e-04	-1.779826e-03	-3.058404e-03	4.612595e-03	-5.272499e-03	6.431838e-04	8.460934e-04	9.254089e-04	9.879851e-04	-4.590488e-03	-4.102955e-03	-3.198141e-03	1.027130e-03	1.052749e-03	1.191125e-03	-3.076237e-03	-3.580020e-03	3.431443e-03	3.781141e-03	8.817823e-04	8.284560e-04	1.618011e-03	1.902619e-03	2.061043e-03	-1.839611e-03	-1.328935e-03	-1.194382e-03	-1.720064e-03	-2.191401e-03	-2.957538e-03	-2.520208e-03	-2.410901e-03	-2.075144e-03	-1.961493e-03	-1.592158e-03	-1.464768e-03	-1.052047e-03	-9.109958e-04	-4.669310e-04	-3.191779e-04	3.990870e-04	5.257840e-04	-1.691494e-04	-2.133184e-05	1.090904e-03	1.179370e-03	1.274547e-03	1.380250e-03	7.004364e-03	5.086764e-03	5.578686e-03	1.609082e-03	1.571659e-03	1.151992e-03	1.201416e-03	-2.219808e-04	6.069000e-03	2.626782e-03	2.860277e-03	7.383660e-04	7.510834e-04	1.131587e-03	9.882502e-04	-3.444054e-03	-3.316651e-03	1.532412e-03	1.582497e-03	-1.312889e-03	-2.925647e-03	7.513940e-04	-2.545867e-03	7.750389e-04	6.403986e-04	1.470916e-03	1.072402e-03	1.377802e-03	-5.605917e-03	-5.193432e-03	-3.849518e-03	1.014215e-04	-6.050923e-03	-1.141688e-02	-1.063545e-02	4.895642e-03	-1.534697e-03	-1.902186e-03	-1.888572e-03	-2.266000e-04	1.410047e-03	3.124686e-03	5.368541e-04	9.116364e-03	-2.719474e-03	1.521389e-03	-2.864419e-03	1.529891e-03	-2.120693e-03	1.332525e-03	-2.535468e-03	6.980602e-04	1.341814e-03	1.501394e-03	3.526134e-03	-2.337415e-03	-4.541619e-03	9.051508e-04	-3.512115e-03	-3.631573e-04	-6.648421e-03	1.012394e-03	1.284130e-03	1.402692e-03	2.002082e-03	3.541982e-03	-1.144823e-02	-2.715006e-03	-1.037380e-03	5.756852e-03	-1.486867e-03	1.748833e-03	-3.411699e-04	-2.090605e-03	2.772222e-04	8.797598e-04	-1.683617e-03	4.189118e-03	-2.106743e-03	-1.630338e-03	-5.157134e-04	-4.844136e-03	-3.672071e-03	-2.649433e-03	-2.541482e-03	1.307743e-03	1.253064e-03	1.462804e-03	2.693826e-03	1.443239e-03	1.477043e-03	4.721670e-04	5.469154e-03	2.124883e-03	-4.277527e-03	-7.495890e-03	1.968632e-03	-6.597998e-04	-2.860338e-03	-2.350167e-03	-1.474216e-03	7.859423e-03	9.074702e-03	1.877622e-03	2.767166e-03	3.967163e-04	8.501059e-04	1.320163e-03	1.376490e-03	1.355471e-03	1.328961e-03	1.331941e-03	-6.040640e-04	-4.671977e-04	1.338447e-03	1.355431e-03	1.564058e-03	1.645296e-03	2.474966e-03	1.511760e-03	1.497971e-03	4.081594e-03	9.142006e-04	9.477811e-04	7.963942e-04	8.227749e-04	-1.276604e-03	1.450280e-03	1.499563e-03	1.419434e-04	2.127073e-04	1.120449e-03	1.167785e-03	2.036483e-03	2.234238e-03	1.535629e-03	1.530605e-03	-1.213309e-04	-2.482496e-05	6.351187e-05	1.218305e-03	1.266647e-03	-1.090310e-03	-9.151966e-04	-7.520925e-04	7.149069e-04	7.349256e-04	7.529839e-04	3.343548e-04	3.855437e-04	4.324868e-04	5.098688e-04	5.406110e-04	6.613381e-04	6.787767e-04	5.710288e-04	4.425380e-03	1.098086e-03	1.165409e-03	-4.050470e-03	1.208605e-03	1.236645e-03	1.260561e-03	1.420238e-03	-2.989339e-03	3.814296e-03	4.112984e-03	1.332308e-03	1.397418e-03	2.253787e-03	2.388710e-03	2.535201e-03	-1.100648e-03	-2.872868e-03	-2.756560e-03	-2.436387e-03	-2.325885e-03	-2.217835e-03	-1.985546e-03	-1.875102e-03	-1.755865e-03	-1.505177e-03	-1.374203e-03	-1.239683e-03	-9.589835e-04	-8.139114e-04	-6.656083e-04	-2.108990e-04	6.679730e-04	7.909292e-04	-5.735915e-05	9.453489e-05	2.440012e-04	1.535041e-03	1.612112e-03	1.694439e-03	1.787376e-03	1.888173e-03	4.746305e-03	5.065114e-03	1.449460e-03	1.424908e-03	1.398019e-03	9.853163e-04	1.029740e-03	5.368576e-03	5.624183e-03	2.871596e-03	3.069578e-03	3.293800e-03	1.259697e-03	1.536624e-03	1.583163e-03	1.514450e-03	-3.369766e-03	-3.235880e-03	-3.112729e-03	1.316265e-03	1.361552e-03	1.405926e-03	5.960305e-04	6.206541e-04	-2.531306e-03	-2.916622e-04	-6.003157e-03	-4.389622e-03	9.822057e-04	-1.866476e-03	5.168099e-03	1.271542e-03	1.311350e-03	-1.404122e-03	-5.268845e-03	1.174804e-03	-2.657703e-03	4.369572e-03	-2.476292e-03	-3.578976e-03	-5.584695e-03	-1.054205e-03	-1.787093e-04	-5.486524e-04	-5.568134e-03	2.535467e-03	1.318950e-03	1.740408e-04	-1.776349e-03	6.760533e-04	-3.954075e-04	7.540570e-04	5.282841e-04	-4.651532e-03	7.244480e-04	-3.422061e-03	-3.280091e-03	-1.448617e-03	2.425635e-03	1.658060e-03	2.524157e-03	3.874862e-03	1.217041e-03	-7.781850e-03	-4.944560e-03	3.371033e-03	1.776679e-03	-1.965627e-03	1.352010e-03	-2.599991e-03	1.345815e-03	1.372596e-03	-2.150828e-03	2.782973e-03	-2.325834e-03	-1.933704e-03	1.081700e-03	1.713706e-03	-1.488491e-03	3.374192e-03	-3.240250e-04	-2.460812e-03	1.801331e-03	1.648176e-03	1.636005e-03	1.307093e-03	1.314648e-03	-4.151401e-03	1.810658e-03	3.263146e-04	-2.681701e-03	-2.408634e-03	-1.583696e-03	1.657718e-03	2.290463e-03	5.781999e-04	1.239781e-03	1.222847e-03	1.210389e-03	1.212551e-03	-6.323502e-04	-5.091233e-04	1.215745e-03	1.228206e-03	1.250084e-03	1.476793e-03	1.558196e-03	1.355948e-03	1.323224e-03	3.029519e-03	7.879302e-04	8.227892e-04	6.971689e-04	7.271015e-04	1.356989e-03	1.409594e-03	4.764826e-05	1.094840e-04	1.012942e-03	1.919893e-03	2.091420e-03	1.364109e-03	1.349938e-03	-1.947017e-04	-1.086453e-04	-2.380104e-05	1.069322e-03	1.099759e-03	-1.232190e-03	-1.066487e-03	-9.081302e-04	-7.645455e-04	5.884808e-04	6.100099e-04	6.294711e-04	6.525851e-04	2.240668e-04	2.758807e-04	3.173037e-04	3.588488e-04	3.921303e-04	5.697450e-04	5.479888e-04	4.260247e-04	1.258190e-03	-3.940007e-03	-3.750639e-03	1.310680e-03	1.350642e-03	1.379492e-03	1.416478e-03	1.482000e-03	4.088193e-03	4.287570e-03	1.719243e-03	1.786908e-03	2.549872e-03	2.672154e-03	2.804268e-03	2.945491e-03	-2.778884e-03	-2.668886e-03	-2.561398e-03	-2.356329e-03	-2.252338e-03	-2.143782e-03	-2.037683e-03	-1.811072e-03	-1.692466e-03	-1.586584e-03	-1.330339e-03	-1.186642e-03	-1.060813e-03	-9.111786e-04	-7.780788e-04	-6.231011e-04	-4.824383e-04	9.650432e-04	8.394014e-04	-2.068428e-05	1.270475e-04	2.843205e-04	4.347472e-04	1.865352e-03	1.941083e-03	2.023293e-03	2.110553e-03	2.204987e-03	2.311718e-03	4.469920e-03	4.634425e-03	1.292516e-03	1.268742e-03	1.254581e-03	8.524133e-04	9.009924e-04	9.300244e-04	4.771448e-03	4.842108e-03	4.768744e-03	3.099902e-03	3.270404e-03	3.464289e-03	3.668060e-03	1.592988e-03	1.749708e-03	1.852837e-03	1.866889e-03	-2.895949e-03	-3.144264e-03	-3.022443e-03	1.157295e-03	1.184097e-03	1.239215e-03	1.258512e-03	4.538860e-04	4.821232e-04	5.043973e-04	-1.970318e-03	-5.389789e-03	1.534811e-03	-8.458956e-03	-2.123003e-03	1.217384e-03	-3.424398e-04	-2.255470e-03	-3.983039e-03	-2.441690e-03	-1.482401e-03	8.602044e-05	2.753923e-03	2.675497e-03	-4.345776e-04	-1.822998e-03	-2.111981e-03	-2.202280e-03	-2.109246e-03	-2.516918e-03	2.770479e-03	2.045716e-03	1.635159e-03	2.191735e-03	1.223339e-03	1.191584e-03	5.936710e-04	-4.858726e-03	-2.719178e-03	-3.051453e-03	8.994079e-04	1.116510e-03	-1.011791e-04	-1.224212e-03	1.272515e-03	8.712758e-04	2.069939e-03	-4.635720e-03	-4.370530e-04	-8.804926e-03	-4.183479e-03	-2.255972e-03	5.530297e-03	6.139114e-03	1.195587e-03	-1.332133e-03	-2.499744e-03	3.495133e-03	-2.354025e-03	-3.318182e-03	-1.002053e-03	-3.159334e-03	-2.926591e-04	-1.814062e-03	4.684424e-04	4.362306e-04	-4.393597e-03	7.108344e-04	-3.183110e-03	2.019956e-03	1.192762e-03	-1.444147e-03	1.959714e-03	1.916674e-03	1.869458e-03	1.153652e-03	1.538039e-03	4.047607e-04	-2.415833e-03	-1.647406e-03	1.126564e-03	1.129526e-03	1.115487e-03	1.122934e-03	-5.416061e-04	-6.517724e-04	1.114748e-03	1.129761e-03	1.137493e-03	1.153412e-03	1.375365e-03	1.448903e-03	1.208230e-03	2.338150e-03	6.852006e-04	7.094068e-04	6.271398e-04	6.452776e-04	1.263367e-03	1.313730e-03	-3.155376e-05	3.974459e-05	1.750812e-03	1.880254e-03	1.208729e-03	-2.537793e-04	-1.630393e-04	-9.581542e-05	9.477338e-04	-1.182362e-03	-1.033850e-03	-8.963077e-04	-7.701911e-04	4.802111e-04	5.110753e-04	5.231226e-04	5.554198e-04	5.722630e-04	1.482447e-04	1.834580e-04	2.370440e-04	2.637333e-04	3.095110e-04	-3.796793e-03	-3.624446e-03	-3.466226e-03	1.345935e-03	1.392386e-03	1.433476e-03	1.465842e-03	1.504608e-03	4.030361e-03	4.126620e-03	1.910272e-03	1.956602e-03	2.851824e-03	2.977496e-03	3.121329e-03	-2.597199e-03	-2.504719e-03	-2.396385e-03	-2.308930e-03	-2.195288e-03	-2.099914e-03	-1.983461e-03	-1.827829e-03	-1.645525e-03	-1.472609e-03	-9.572940e-04	-6.816615e-04	-3.951104e-04	1.962279e-04	4.857878e-04	2.044515e-03	2.121766e-03	2.221866e-03	2.302824e-03	2.399445e-03	2.511515e-03	2.622466e-03	4.186546e-03	4.224294e-03	1.159502e-03	1.157687e-03	1.142165e-03	7.402901e-04	7.985577e-04	4.228818e-03	4.155307e-03	3.943767e-03	3.264582e-03	3.414723e-03	3.580758e-03	3.743905e-03	3.892133e-03	1.565597e-03	1.685822e-03	1.817400e-03	1.984118e-03	-2.931865e-03	-2.821603e-03	1.024253e-03	1.095073e-03	3.313022e-04	3.719217e-04	3.879542e-04	4.228577e-04	6.293977e-03	-8.864387e-03	-2.044386e-03	-2.074992e-03	1.795338e-03	1.447634e-03	-4.111977e-03	-1.368753e-03	-3.191297e-03	2.673047e-03	1.609882e-03	-2.395370e-03	-1.383914e-03	-1.925541e-03	2.070392e-03	-5.192564e-03	1.253389e-03	-9.223190e-04	-1.797386e-03	1.375435e-03	7.257769e-04	-3.930277e-03	3.784273e-04	1.128145e-03	1.089526e-03	9.250818e-04	-3.786204e-04	4.785157e-05	-2.291760e-03	5.421059e-04	-5.603498e-04	-4.672830e-04	3.001281e-03	-3.613480e-03	-2.592445e-03	-1.735478e-03	2.112123e-03	1.309727e-03	-8.334396e-03	-3.765630e-03	-2.169733e-03	-2.398365e-03	1.710709e-03	1.070692e-03	1.209877e-03	1.352194e-03	-4.316627e-03	-1.782169e-03	-5.355746e-03	-2.332356e-03	5.584796e-03	-1.256338e-03	-2.186276e-03	-2.126666e-03	8.260262e-04	-1.518726e-03	-3.069703e-03	-2.955467e-03	1.022869e-03	2.123230e-03	2.054824e-03	1.056069e-03	3.872521e-04	-3.480421e-04	-1.664192e-03	1.032605e-03	1.031878e-03	-6.629668e-04	1.042359e-03	1.051047e-03	1.251866e-03	1.832682e-03	5.964580e-04	1.160218e-03	1.202439e-03	-5.685016e-05	1.523976e-03	1.068190e-03	1.064520e-03	-2.517457e-04	-1.552347e-04	7.917910e-04	-1.124061e-03	-9.903771e-04	-8.743765e-04	-7.679935e-04	4.234810e-04	4.705973e-04	4.993237e-04	1.357383e-04	2.109186e-04	-3.464811e-03	-3.324081e-03	1.446653e-03	1.521694e-03	3.898695e-03	2.087615e-03	3.184410e-03	-1.447464e-03	-2.394274e-03	-2.194904e-03	-1.989371e-03	-1.791896e-03	-1.617609e-03	-1.239699e-03	-9.901066e-04	-7.283258e-04	-4.599939e-04	-1.827560e-04	9.980047e-05	3.789142e-04	6.263520e-04	2.242754e-03	2.430854e-03	2.603781e-03	2.712171e-03	2.839844e-03	3.857627e-03	3.801406e-03	1.052977e-03	1.051398e-03	1.033706e-03	6.320314e-04	6.679436e-04	3.715163e-03	3.547780e-03	3.248895e-03	2.789930e-03	3.330745e-03	3.468146e-03	3.606228e-03	3.732396e-03	3.820428e-03	3.923556e-03	1.642021e-03	1.826814e-03	-2.862662e-03	-2.738404e-03	8.601102e-04	9.820920e-04	1.026350e-03	2.756742e-04	3.300777e-04	-4.415584e-03	4.908673e-03	4.880192e-03	-5.760538e-03	-8.965373e-04	-3.912818e-03	-3.523523e-03	2.263836e-03	-1.920347e-03	-1.634234e-03	3.044642e-03	1.863816e-03	3.135952e-04	-1.639325e-03	-2.334482e-03	-3.153294e-03	9.534671e-04	1.833893e-03	-4.917012e-03	9.486725e-04	-1.395847e-03	3.644361e-03	9.897504e-04	-1.844328e-03	4.419616e-04	1.021064e-03	8.539606e-04	6.786483e-04	1.181259e-03	1.226069e-03	-1.286637e-03	-1.175702e-03	-6.621037e-03	-3.543564e-03	-3.691801e-03	-2.934302e-03	2.182927e-03	6.986832e-04	9.310902e-04	-6.608398e-04	-7.578113e-03	-7.657444e-03	-2.208494e-03	1.138679e-03	-3.040279e-03	4.642553e-05	1.281251e-03	-1.277260e-03	-1.739587e-03	6.206394e-04	-2.220355e-03	-5.761714e-04	-4.915259e-04	-3.406459e-03	-2.005025e-03	1.102701e-03	1.337999e-03	9.483270e-04	-2.331965e-03	3.488150e-03	-7.561786e-04	-2.030803e-03	-1.951740e-03	1.078400e-03	-1.518426e-03	-2.835545e-03	8.911182e-04	2.087921e-03	4.817176e-04	-3.053843e-04	-8.367495e-04	9.247397e-04	9.339254e-04	9.687488e-04	9.990954e-04	1.461694e-03	4.893024e-04	1.043803e-03	1.070521e-03	4.061079e-04	9.365089e-04	9.316997e-04	9.527238e-04	-3.947211e-04	-2.872161e-04	-2.004136e-04	-1.052956e-03	3.132421e-04	3.625020e-04	-1.040402e-04	-9.205167e-06	8.988570e-04	-3.276854e-03	1.248275e-03	1.374823e-03	3.157525e-03	-2.355416e-03	-2.156503e-03	-1.424231e-03	-1.953260e-03	-1.760502e-03	-1.586546e-03	-1.248553e-03	-1.037428e-03	-7.996470e-04	-5.512484e-04	-2.957455e-04	-3.204889e-05	2.330630e-04	2.174946e-03	2.238111e-03	2.405464e-03	2.602080e-03	2.790592e-03	2.987902e-03	3.484333e-03	3.359509e-03	9.462924e-04	9.245964e-04	5.375230e-04	5.747110e-04	3.218133e-03	3.004192e-03	2.668997e-03	2.218498e-03	1.653301e-03	3.300831e-03	3.424461e-03	3.5359