# vtk DataFile Version 3.0
vtk output
ASCII
DATASET UNSTRUCTURED_GRID
POINTS 5233 float
9.997500e-01	-3.632909e-05	0.0	9.990000e-01	-1.452618e-04	0.0	9.977600e-01	-3.252008e-04	0.0	9.960200e-01	-5.774943e-04	0.0	9.937800e-01	-9.022942e-04	0.0	9.910500e-01	-1.298763e-03	0.0	9.878400e-01	-1.766726e-03	0.0	9.841300e-01	-2.311194e-03	0.0	9.799500e-01	-2.930640e-03	0.0	9.752800e-01	-3.631444e-03	0.0	9.701500e-01	-4.412625e-03	0.0	9.645400e-01	-5.280292e-03	0.0	9.584700e-01	-6.233365e-03	0.0	9.519400e-01	-7.272227e-03	0.0	9.449600e-01	-8.393908e-03	0.0	9.375400e-01	-9.593773e-03	0.0	9.296900e-01	-1.086609e-02	0.0	9.214000e-01	-1.220804e-02	0.0	9.127000e-01	-1.361074e-02	0.0	9.035800e-01	-1.507272e-02	0.0	8.940600e-01	-1.658877e-02	0.0	8.841500e-01	-1.815610e-02	0.0	8.738500e-01	-1.977361e-02	0.0	8.631800e-01	-2.143627e-02	0.0	8.521600e-01	-2.313752e-02	0.0	8.407700e-01	-2.487471e-02	0.0	8.290500e-01	-2.663345e-02	0.0	8.170100e-01	-2.840162e-02	0.0	8.046400e-01	-3.016792e-02	0.0	7.919700e-01	-3.191393e-02	0.0	7.790100e-01	-3.362378e-02	0.0	7.657800e-01	-3.528073e-02	0.0	7.522800e-01	-3.687177e-02	0.0	7.385200e-01	-3.838440e-02	0.0	7.245300e-01	-3.980643e-02	0.0	7.103200e-01	-4.113073e-02	0.0	6.958900e-01	-4.235375e-02	0.0	6.812700e-01	-4.347212e-02	0.0	6.664700e-01	-4.448693e-02	0.0	6.515000e-01	-4.540154e-02	0.0	6.363800e-01	-4.622067e-02	0.0	6.211300e-01	-4.695082e-02	0.0	6.057600e-01	-4.760016e-02	0.0	5.902800e-01	-4.817747e-02	0.0	5.747100e-01	-4.869148e-02	0.0	5.590600e-01	-4.915119e-02	0.0	5.433600e-01	-4.956464e-02	0.0	5.276100e-01	-4.993996e-02	0.0	5.118400e-01	-5.028359e-02	0.0	4.960500e-01	-5.060149e-02	0.0	4.802700e-01	-5.089775e-02	0.0	4.645100e-01	-5.117554e-02	0.0	4.487800e-01	-5.143670e-02	0.0	4.331100e-01	-5.168146e-02	0.0	4.175000e-01	-5.190932e-02	0.0	4.019700e-01	-5.211839e-02	0.0	3.865400e-01	-5.230586e-02	0.0	3.712300e-01	-5.246816e-02	0.0	3.560400e-01	-5.260130e-02	0.0	3.409900e-01	-5.270061e-02	0.0	3.261100e-01	-5.276113e-02	0.0	3.114000e-01	-5.277790e-02	0.0	2.968700e-01	-5.274582e-02	0.0	2.825500e-01	-5.265996e-02	0.0	2.684500e-01	-5.251559e-02	0.0	2.545700e-01	-5.230801e-02	0.0	2.409400e-01	-5.203324e-02	0.0	2.275700e-01	-5.168749e-02	0.0	2.144700e-01	-5.126729e-02	0.0	2.016600e-01	-5.076993e-02	0.0	1.891400e-01	-5.019238e-02	0.0	1.769300e-01	-4.953284e-02	0.0	1.650400e-01	-4.878952e-02	0.0	1.534900e-01	-4.796177e-02	0.0	1.422900e-01	-4.704883e-02	0.0	1.314400e-01	-4.604934e-02	0.0	1.209500e-01	-4.496296e-02	0.0	1.108500e-01	-4.379208e-02	0.0	1.011300e-01	-4.253503e-02	0.0	9.181000e-02	-4.119389e-02	0.0	8.290000e-02	-3.976997e-02	0.0	7.440000e-02	-3.826304e-02	0.0	6.633000e-02	-3.667657e-02	0.0	5.869000e-02	-3.501058e-02	0.0	5.149000e-02	-3.326708e-02	0.0	4.474000e-02	-3.144844e-02	0.0	3.844000e-02	-2.955433e-02	0.0	3.260000e-02	-2.758711e-02	0.0	2.723000e-02	-2.554977e-02	0.0	2.232000e-02	-2.343708e-02	0.0	1.790000e-02	-2.126113e-02	0.0	1.395000e-02	-1.901092e-02	0.0	1.049000e-02	-1.669561e-02	0.0	7.520000e-03	-1.431461e-02	0.0	5.040000e-03	-1.186637e-02	0.0	3.050000e-03	-9.347302e-03	0.0	1.560000e-03	-6.769269e-03	0.0	5.600000e-04	-4.108233e-03	0.0	6.000000e-05	-1.363608e-03	0.0	0.000000e+00	0.000000e+00	0.0	6.000000e-05	1.350236e-03	0.0	5.600000e-04	4.050826e-03	0.0	1.560000e-03	6.663226e-03	0.0	3.050000e-03	9.195473e-03	0.0	5.040000e-03	1.167583e-02	0.0	7.520000e-03	1.409653e-02	0.0	1.049000e-02	1.646478e-02	0.0	1.395000e-02	1.878581e-02	0.0	1.790000e-02	2.106403e-02	0.0	2.232000e-02	2.329392e-02	0.0	2.723000e-02	2.549065e-02	0.0	3.260000e-02	2.764558e-02	0.0	3.844000e-02	2.976800e-02	0.0	4.474000e-02	3.185849e-02	0.0	5.149000e-02	3.391797e-02	0.0	5.869000e-02	3.595015e-02	0.0	6.633000e-02	3.795531e-02	0.0	7.440000e-02	3.993367e-02	0.0	8.290000e-02	4.188739e-02	0.0	9.181000e-02	4.381361e-02	0.0	1.011300e-01	4.571359e-02	0.0	1.108500e-01	4.758588e-02	0.0	1.209500e-01	4.942683e-02	0.0	1.314400e-01	5.123782e-02	0.0	1.422900e-01	5.301272e-02	0.0	1.534900e-01	5.474871e-02	0.0	1.650400e-01	5.644398e-02	0.0	1.769300e-01	5.809472e-02	0.0	1.891400e-01	5.969553e-02	0.0	2.016600e-01	6.124223e-02	0.0	2.144700e-01	6.272926e-02	0.0	2.275700e-01	6.415328e-02	0.0	2.409400e-01	6.550849e-02	0.0	2.545700e-01	6.679020e-02	0.0	2.684500e-01	6.799357e-02	0.0	2.825500e-01	6.911218e-02	0.0	2.968700e-01	7.014214e-02	0.0	3.114000e-01	7.107860e-02	0.0	3.261100e-01	7.191555e-02	0.0	3.409900e-01	7.264840e-02	0.0	3.560400e-01	7.327286e-02	0.0	3.712300e-01	7.378330e-02	0.0	3.865400e-01	7.417483e-02	0.0	4.019700e-01	7.444303e-02	0.0	4.175000e-01	7.458295e-02	0.0	4.331100e-01	7.458992e-02	0.0	4.487800e-01	7.445955e-02	0.0	4.645100e-01	7.418745e-02	0.0	4.802700e-01	7.376991e-02	0.0	4.960500e-01	7.320341e-02	0.0	5.118400e-01	7.248482e-02	0.0	5.276100e-01	7.161270e-02	0.0	5.433600e-01	7.058503e-02	0.0	5.590600e-01	6.940265e-02	0.0	5.747100e-01	6.806549e-02	0.0	5.902800e-01	6.657731e-02	0.0	6.057600e-01	6.494175e-02	0.0	6.211300e-01	6.316504e-02	0.0	6.363800e-01	6.125402e-02	0.0	6.515000e-01	5.921698e-02	0.0	6.664700e-01	5.706516e-02	0.0	6.812700e-01	5.481151e-02	0.0	6.958900e-01	5.246892e-02	0.0	7.103200e-01	5.005129e-02	0.0	7.245300e-01	4.757686e-02	0.0	7.385200e-01	4.505941e-02	0.0	7.522800e-01	4.251466e-02	0.0	7.657800e-01	3.996213e-02	0.0	7.790100e-01	3.741749e-02	0.0	7.919700e-01	3.489399e-02	0.0	8.046400e-01	3.240819e-02	0.0	8.170100e-01	2.997405e-02	0.0	8.290500e-01	2.760884e-02	0.0	8.407700e-01	2.532127e-02	0.0	8.521600e-01	2.312328e-02	0.0	8.631800e-01	2.103157e-02	0.0	8.738500e-01	1.905016e-02	0.0	8.841500e-01	1.718895e-02	0.0	8.940600e-01	1.545535e-02	0.0	9.035800e-01	1.385019e-02	0.0	9.127000e-01	1.237271e-02	0.0	9.214000e-01	1.102010e-02	0.0	9.296900e-01	9.781662e-03	0.0	9.375400e-01	8.650401e-03	0.0	9.449600e-01	7.612208e-03	0.0	9.519400e-01	6.656126e-03	0.0	9.584700e-01	5.772587e-03	0.0	9.645400e-01	4.954359e-03	0.0	9.701500e-01	4.195689e-03	0.0	9.752800e-01	3.496291e-03	0.0	9.799500e-01	2.852720e-03	0.0	9.841300e-01	2.270023e-03	0.0	9.878400e-01	1.747228e-03	0.0	9.910500e-01	1.290667e-03	0.0	9.937800e-01	8.994899e-04	0.0	9.960200e-01	5.767420e-04	0.0	9.977600e-01	3.250644e-04	0.0	9.990000e-01	1.452495e-04	0.0	9.997500e-01	3.632890e-05	0.0	1.000000e+00	0.000000e+00	0.0	1.984229e+01	2.506660e+00	0.0	1.937166e+01	4.973800e+00	0.0	1.859553e+01	7.362490e+00	0.0	1.752613e+01	9.635070e+00	0.0	1.618034e+01	1.175571e+01	0.0	1.457937e+01	1.369094e+01	0.0	1.274848e+01	1.541027e+01	0.0	1.071654e+01	1.688656e+01	0.0	8.515590e+00	1.809654e+01	0.0	6.180340e+00	1.902113e+01	0.0	3.747630e+00	1.964575e+01	0.0	1.255810e+00	1.996053e+01	0.0	-1.255810e+00	1.996053e+01	0.0	-3.747630e+00	1.964574e+01	0.0	-6.180340e+00	1.902113e+01	0.0	-8.515590e+00	1.809654e+01	0.0	-1.071654e+01	1.688656e+01	0.0	-1.274848e+01	1.541026e+01	0.0	-1.457937e+01	1.369094e+01	0.0	-1.618034e+01	1.175570e+01	0.0	-1.752613e+01	9.635070e+00	0.0	-1.859553e+01	7.362490e+00	0.0	-1.937166e+01	4.973800e+00	0.0	-1.984229e+01	2.506660e+00	0.0	-2.000000e+01	0.000000e+00	0.0	-1.984229e+01	-2.506670e+00	0.0	-1.937166e+01	-4.973800e+00	0.0	-1.859553e+01	-7.362490e+00	0.0	-1.752613e+01	-9.635080e+00	0.0	-1.618034e+01	-1.175571e+01	0.0	-1.457937e+01	-1.369094e+01	0.0	-1.274848e+01	-1.541027e+01	0.0	-1.071653e+01	-1.688656e+01	0.0	-8.515580e+00	-1.809654e+01	0.0	-6.180340e+00	-1.902113e+01	0.0	-3.747620e+00	-1.964575e+01	0.0	-1.255810e+00	-1.996053e+01	0.0	1.255810e+00	-1.996053e+01	0.0	3.747630e+00	-1.964574e+01	0.0	6.180340e+00	-1.902113e+01	0.0	8.515590e+00	-1.809654e+01	0.0	1.071654e+01	-1.688656e+01	0.0	1.274848e+01	-1.541026e+01	0.0	1.457937e+01	-1.369094e+01	0.0	1.618034e+01	-1.175570e+01	0.0	1.752614e+01	-9.635070e+00	0.0	1.859553e+01	-7.362490e+00	0.0	1.937166e+01	-4.973790e+00	0.0	1.984229e+01	-2.506660e+00	0.0	2.000000e+01	0.000000e+00	0.0	6.093892e-02	-4.285144e-02	0.0	6.600410e-01	-5.844939e-02	0.0	4.255297e-01	8.863687e-02	0.0	6.904536e-01	6.677179e-02	0.0	3.791252e-01	-6.656260e-02	0.0	9.994589e-01	-7.258723e-04	0.0	9.985402e-01	-1.320872e-03	0.0	7.738251e-01	-4.634860e-02	0.0	6.897588e-01	-5.606349e-02	0.0	-1.367138e-03	6.233161e-03	0.0	7.467650e-01	-4.997311e-02	0.0	5.838090e-01	8.122916e-02	0.0	9.927651e-01	-3.598793e-03	0.0	9.898616e-01	-4.480982e-03	0.0	5.994275e-01	7.958836e-02	0.0	7.187102e-01	-5.322760e-02	0.0	-1.548094e-03	7.305687e-04	0.0	9.864673e-01	-5.441292e-03	0.0	9.825916e-01	-6.470515e-03	0.0	-1.358171e-03	-6.336027e-03	0.0	6.449375e-01	-5.947833e-02	0.0	8.244939e-01	-3.842106e-02	0.0	7.997632e-01	-4.246746e-02	0.0	3.482204e-01	8.660152e-02	0.0	8.478910e-01	-3.434813e-02	0.0	2.468390e-01	7.862192e-02	0.0	8.698983e-01	-3.032503e-02	0.0	1.001408e-02	2.079824e-02	0.0	8.904116e-01	-2.642047e-02	0.0	7.722818e-02	-4.682321e-02	0.0	9.093595e-01	-2.267674e-02	0.0	-1.865007e-03	-3.138557e-03	0.0	9.422484e-01	-1.580904e-02	0.0	9.266631e-01	-1.912583e-02	0.0	1.806769e-02	-2.637803e-02	0.0	4.256782e-01	-6.623083e-02	0.0	8.590773e-01	-3.232303e-02	0.0	9.560748e-01	-1.276843e-02	0.0	9.782290e-01	-7.589010e-03	0.0	9.680882e-01	-1.002215e-02	0.0	1.584746e-01	-5.900398e-02	0.0	9.000881e-01	-2.452666e-02	0.0	7.604299e-01	-4.820093e-02	0.0	9.971132e-01	-2.058079e-03	0.0	5.988429e-01	-6.197001e-02	0.0	4.413590e-01	-6.604490e-02	0.0	5.361230e-01	-6.418097e-02	0.0	4.728882e-01	-6.557080e-02	0.0	5.045102e-01	-6.495629e-02	0.0	4.886866e-01	-6.528085e-02	0.0	1.251652e-01	-5.514410e-02	0.0	2.799454e-02	-3.148915e-02	0.0	3.945492e-01	-6.649285e-02	0.0	4.640172e-02	-3.855324e-02	0.0	4.100682e-01	-6.638196e-02	0.0	3.187978e-01	-6.636792e-02	0.0	3.486567e-01	-6.657206e-02	0.0	3.367005e-02	-3.391128e-02	0.0	2.896281e-01	-6.592628e-02	0.0	9.346743e-01	-1.743395e-02	0.0	1.470184e-01	-5.780948e-02	0.0	1.948400e-01	-6.200962e-02	0.0	8.600599e-02	-4.867547e-02	0.0	1.048018e-01	-5.210645e-02	0.0	5.676108e-01	-6.321237e-02	0.0	1.702734e-01	-6.010386e-02	0.0	6.143295e-01	-6.122907e-02	0.0	8.803501e-01	-2.835590e-02	0.0	2.280418e-02	-2.897635e-02	0.0	9.951875e-01	-2.803889e-03	0.0	6.796488e-03	-1.820110e-02	0.0	1.798544e-02	2.626178e-02	0.0	9.182203e-01	-2.087471e-02	0.0	9.49388
[...]
POINT_DATA 5233

SCALARS Conservative_1 float 1
LOOKUP_TABLE default
1.503724e-02	6.880281e-03	5.441201e-03	4.380485e-03	3.706584e-03	3.200039e-03	2.804934e-03	2.491162e-03	2.241609e-03	2.042507e-03	1.884873e-03	1.761521e-03	1.666890e-03	1.596218e-03	1.545676e-03	1.510504e-03	1.489226e-03	1.473971e-03	1.464950e-03	1.462336e-03	1.471137e-03	1.486192e-03	1.510169e-03	1.545081e-03	1.587971e-03	1.641887e-03	1.700950e-03	1.767562e-03	1.835302e-03	1.903138e-03	1.968552e-03	2.023943e-03	2.072557e-03	2.103389e-03	2.123304e-03	2.123981e-03	2.112783e-03	2.083743e-03	2.044869e-03	1.991341e-03	1.932466e-03	1.864008e-03	1.794543e-03	1.720463e-03	1.648986e-03	1.576868e-03	1.509684e-03	1.444989e-03	1.386063e-03	1.331709e-03	1.283152e-03	1.239501e-03	1.200701e-03	1.167710e-03	1.138086e-03	1.113936e-03	1.091997e-03	1.074094e-03	1.057080e-03	1.042717e-03	1.027944e-03	1.014250e-03	9.986651e-04	9.830615e-04	9.641505e-04	9.438690e-04	9.190290e-04	8.913403e-04	8.583175e-04	8.209052e-04	7.776530e-04	7.281683e-04	6.724265e-04	6.090171e-04	5.383615e-04	4.593425e-04	3.710500e-04	2.737761e-04	1.659000e-04	4.740364e-05	-8.338967e-05	-2.267863e-04	-3.842367e-04	-5.566420e-04	-7.459852e-04	-9.528010e-04	-1.179848e-03	-1.427372e-03	-1.697248e-03	-1.988705e-03	-2.299904e-03	-2.617354e-03	-2.941227e-03	-3.265217e-03	-3.402005e-03	-3.187609e-03	-2.916392e-03	-2.684179e-03	-2.254823e-03	-1.834299e-03	-1.467911e-03	-5.461337e-04	5.454289e-04	7.243550e-04	1.905415e-03	5.820047e-03	9.664380e-03	1.065367e-02	9.644518e-03	8.395796e-03	7.407127e-03	6.544851e-03	5.750805e-03	5.040026e-03	4.417718e-03	3.886523e-03	3.428957e-03	3.034818e-03	2.696197e-03	2.396641e-03	2.136891e-03	1.901725e-03	1.685761e-03	1.487038e-03	1.306566e-03	1.144923e-03	9.996775e-04	8.651680e-04	7.434989e-04	6.305838e-04	5.315416e-04	4.436035e-04	3.646274e-04	2.927240e-04	2.214721e-04	1.561017e-04	1.010840e-04	7.836973e-05	9.524009e-05	1.692407e-04	3.201454e-04	5.766003e-04	8.469696e-04	1.031327e-03	1.061538e-03	1.000487e-03	9.171472e-04	8.315762e-04	7.437053e-04	6.428936e-04	5.334451e-04	4.127553e-04	2.900723e-04	1.611943e-04	2.595601e-05	-1.103188e-04	-2.543863e-04	-3.961359e-04	-5.391998e-04	-6.830439e-04	-8.228639e-04	-9.642680e-04	-1.099143e-03	-1.235073e-03	-1.363185e-03	-1.491627e-03	-1.611773e-03	-1.731721e-03	-1.843348e-03	-1.954869e-03	-2.058645e-03	-2.163134e-03	-2.259649e-03	-2.357424e-03	-2.451562e-03	-2.543495e-03	-2.634844e-03	-2.724887e-03	-2.820126e-03	-2.917686e-03	-3.026002e-03	-3.136068e-03	-3.248393e-03	-3.363351e-03	-3.491855e-03	-3.633654e-03	-3.794440e-03	-3.974753e-03	-4.179610e-03	-4.412435e-03	-4.679619e-03	-4.987879e-03	-5.347312e-03	-5.769794e-03	-6.273609e-03	-6.883468e-03	-7.778310e-03	-8.611006e-03	-1.509664e-02	-5.413616e-04	-9.648704e-06	-9.378860e-06	-8.971282e-06	-8.545920e-06	-7.966065e-06	-7.283127e-06	-6.405969e-06	-5.339882e-06	-4.043538e-06	-2.607756e-06	-7.063194e-07	1.616360e-06	4.280841e-06	6.860745e-06	8.663314e-06	1.006981e-05	1.072487e-05	1.079678e-05	1.044849e-05	1.000190e-05	9.670175e-06	8.158022e-06	9.171966e-06	1.652273e-05	1.117787e-05	9.556723e-06	1.148398e-05	9.686845e-06	9.423351e-07	8.046501e-07	5.772505e-07	-1.125629e-07	-5.423228e-07	-1.152035e-06	-1.912994e-06	-2.759436e-06	-3.269655e-06	-4.198281e-06	-4.580167e-06	-5.681027e-06	-7.055171e-06	-8.020893e-06	-8.792094e-06	-9.339279e-06	-9.717083e-06	-9.964715e-06	-1.008899e-05	-1.007678e-05	-9.940566e-06	-9.861394e-06	-5.941783e-04	1.780795e-03	1.238890e-03	-8.149415e-04	9.437435e-04	1.136291e-02	7.793514e-03	1.785773e-03	1.852262e-03	-5.037118e-04	1.853719e-03	2.217233e-04	3.661826e-03	3.107384e-03	7.744858e-05	1.878236e-03	-1.745776e-03	2.698665e-03	2.388537e-03	-2.745932e-03	1.732381e-03	1.586363e-03	1.689294e-03	8.542272e-04	1.497377e-03	8.523391e-04	1.436604e-03	8.571278e-03	1.413651e-03	-2.863274e-04	1.427630e-03	-2.467451e-03	1.501449e-03	1.451235e-03	-2.176902e-03	1.011006e-03	1.462337e-03	1.611184e-03	2.147547e-03	1.811877e-03	4.946788e-04	1.417094e-03	1.825689e-03	5.646640e-03	1.552935e-03	1.040442e-03	1.306284e-03	1.111123e-03	1.200283e-03	1.153691e-03	2.729350e-04	-1.640871e-03	9.630945e-04	-9.619004e-04	9.859039e-04	8.795876e-04	9.099189e-04	-1.396530e-03	8.473501e-04	1.471333e-03	4.290378e-04	6.516064e-04	-1.522753e-04	8.100310e-05	1.426080e-03	5.536362e-04	1.616556e-03	1.419702e-03	-1.901398e-03	4.449829e-03	-3.011241e-03	8.001786e-03	1.439074e-03	1.546991e-03	1.958951e-03	4.527322e-05	1.538255e-03	7.848159e-04	1.365254e-03	1.872901e-03	1.740280e-03	1.818630e-04	7.272194e-04	1.489933e-03	1.822517e-03	-7.703357e-04	-3.228815e-03	-2.458640e-03	9.257366e-04	6.056336e-04	1.589056e-02	7.583262e-04	-2.997889e-05	8.635654e-04	8.086540e-04	1.073498e-03	1.872318e-03	-1.344690e-03	-2.956237e-03	6.281461e-04	-2.053300e-03	6.517040e-03	4.203521e-03	5.248810e-03	2.147329e-03	1.268419e-03	-8.102287e-03	7.503724e-04	1.053166e-03	-4.275584e-03	-3.855504e-03	-2.707551e-03	9.649443e-04	1.191923e-03	1.203501e-03	-3.159441e-03	-2.936244e-03	3.088264e-03	-4.535509e-03	-3.682804e-03	-3.394619e-03	2.564329e-03	3.777482e-03	6.923839e-04	7.942405e-04	1.383431e-03	6.643814e-04	1.129155e-03	1.260972e-03	1.644003e-03	1.964380e-03	-2.211762e-04	1.163837e-03	9.876933e-04	-5.208131e-04	3.643490e-04	-1.368167e-03	-1.098697e-03	-1.858932e-03	-1.621595e-03	-2.294237e-03	-2.083110e-03	-2.819733e-03	-2.499282e-03	-3.530945e-03	-3.050303e-03	-4.051138e-03	-2.397622e-03	-2.602262e-03	-1.971386e-03	-2.189020e-03	-1.495888e-03	-1.741132e-03	-9.573084e-04	-1.234256e-03	-3.706220e-04	-6.678657e-04	4.993279e-04	-7.143269e-05	1.069290e-03	9.163995e-04	1.507414e-03	1.268507e-03	4.692710e-03	1.796368e-03	8.844234e-03	5.865202e-03	6.921492e-04	1.854239e-03	1.697697e-03	1.636729e-03	8.943071e-04	1.251517e-03	5.770641e-05	7.196590e-03	5.769193e-03	2.809673e-03	3.408360e-03	7.388487e-04	2.346229e-03	-4.841383e-03	-5.206206e-03	6.615859e-04	-5.656087e-03	-6.229411e-03	7.199838e-04	1.041796e-03	-3.273712e-03	-1.736067e-02	-9.987859e-03	-1.294587e-02	1.675879e-03	-1.170402e-03	-6.998317e-03	8.623286e-04	-3.197190e-03	-2.735178e-03	-4.333905e-04	3.551697e-04	8.287572e-04	3.462328e-03	-7.209088e-04	-1.340577e-03	6.963201e-04	1.625928e-03	1.337573e-03	-2.773227e-03	5.356701e-04	1.604952e-03	1.564840e-03	2.911175e-03	7.491416e-04	1.360953e-03	1.419587e-03	-2.213038e-04	-2.748801e-03	5.647682e-04	-2.307553e-03	1.598949e-03	3.194969e-04	1.641428e-03	1.533940e-03	9.166449e-04	-3.456035e-04	8.178482e-04	1.319759e-03	1.529690e-03	5.347399e-03	6.799437e-03	-3.888276e-04	-2.119869e-03	2.581608e-03	-5.401244e-04	1.872614e-03	-2.445267e-03	-5.415655e-03	1.396665e-03	1.056135e-03	-3.517204e-03	-2.552544e-03	-5.956567e-03	-3.681121e-03	-4.629421e-03	1.370996e-03	1.284686e-03	1.432504e-03	2.764967e-03	1.571342e-03	5.264461e-04	7.138354e-03	2.120512e-03	4.480205e-03	-4.083192e-03	-6.651976e-03	-2.659162e-03	3.800091e-04	-6.928028e-03	-8.684807e-03	-7.609001e-03	2.189516e-03	-3.931892e-04	-2.986669e-03	-2.241858e-03	-1.944800e-03	-2.060242e-03	3.972777e-03	-6.304512e-04	6.109048e-03	4.070356e-03	1.450280e-03	1.166147e-03	2.535003e-03	1.326899e-03	3.833102e-04	3.402632e-03	-2.547553e-03	8.872435e-04	1.480131e-03	1.386308e-03	1.225427e-03	1.339805e-03	1.320180e-03	-4.819403e-04	1.325862e-03	1.356522e-03	1.455262e-03	-1.584936e-03	1.516444e-03	1.706227e-03	2.247809e-03	1.741814e-04	1.618296e-03	1.596020e-03	5.005855e-03	9.488950e-04	9.847625e-04	1.025459e-03	-1.817735e-03	8.379589e-04	8.620777e-04	7.646018e-04	-1.160014e-03	1.378538e-03	1.410532e-03	2.505654e-04	-1.075978e-04	1.220125e-03	1.383103e-03	1.844604e-03	2.020897e-03	1.642277e-03	1.637296e-03	-4.678987e-06	8.992136e-05	1.273054e-03	1.329938e-03	-9.696942e-04	-7.927583e-04	-2.547967e-03	7.816800e-04	7.985166e-04	4.351785e-04	4.835774e-04	5.975664e-04	6.274400e-04	7.154271e-04	7.320732e-04	6.529735e-04	-1.737883e-03	-3.083206e-03	4.902822e-03	-4.981016e-03	9.400504e-04	1.165206e-03	1.257231e-03	1.334729e-03	-4.332746e-03	-3.868630e-03	-3.004009e-03	1.391166e-03	1.428903e-03	1.530882e-03	-2.886230e-03	-3.370299e-03	3.759116e-03	4.098128e-03	1.313492e-03	1.265303e-03	1.990457e-03	2.261470e-03	2.414343e-03	-1.650128e-03	-1.125479e-03	-9.863133e-04	-1.527400e-03	-2.008051e-03	-2.770835e-03	-2.339115e-03	-2.229662e-03	-1.890330e-03	-1.774353e-03	-1.396389e-03	-1.265127e-03	-8.394360e-04	-6.931266e-04	-2.322182e-04	-7.802768e-05	6.770774e-04	8.128794e-04	7.847397e-05	2.330100e-04	1.501444e-03	1.581134e-03	1.668374e-03	1.766615e-03	7.254653e-03	5.362376e-03	5.841653e-03	1.493305e-03	1.454266e-03	1.069015e-03	1.117095e-03	3.107204e-05	6.321437e-03	2.970573e-03	3.201238e-03	1.219867e-03	1.207688e-03	1.561709e-03	1.518845e-03	-3.240264e-03	-3.118179e-03	1.438168e-03	1.486490e-03	-1.364896e-03	-2.961202e-03	6.766198e-04	-2.567009e-03	7.058194e-04	5.727983e-04	1.367747e-03	9.965124e-04	1.233938e-03	-5.303059e-03	-4.911291e-03	-3.631953e-03	3.323890e-04	-5.725658e-03	-1.077888e-02	-1.004852e-02	4.415960e-03	-1.585251e-03	-1.945055e-03	-1.855044e-03	-2.891512e-04	1.259575e-03	2.798322e-03	7.797847e-04	8.296422e-03	-2.747221e-03	1.428008e-03	-2.894167e-03	1.434859e-03	-2.160205e-03	1.212121e-03	-2.567946e-03	6.299816e-04	1.224684e-03	1.409758e-03	3.164013e-03	-2.373312e-03	-4.291380e-03	1.177025e-03	-3.309854e-03	-1.573490e-04	-6.292117e-03	1.296362e-03	1.662908e-03	1.854987e-03	2.314977e-03	3.806840e-03	-1.081422e-02	-2.746596e-03	-9.391241e-04	5.960400e-03	-1.422005e-03	1.552531e-03	-4.027428e-04	-2.072140e-03	2.110380e-04	8.084262e-04	-1.729630e-03	4.483488e-03	-1.936536e-03	-1.455358e-03	-3.146986e-04	-4.579197e-03	-3.462636e-03	-2.476264e-03	-2.369997e-03	1.766628e-03	1.657370e-03	1.812309e-03	2.981811e-03	1.355050e-03	1.387047e-03	4.051631e-04	5.707338e-03	2.430397e-03	-4.039967e-03	-7.092882e-03	2.272976e-03	-5.149658e-04	-2.885327e-03	-2.351181e-03	-1.523107e-03	7.137108e-03	8.250908e-03	1.667546e-03	2.472827e-03	6.313454e-04	7.794155e-04	1.629468e-03	1.264829e-03	1.241338e-03	1.204946e-03	1.203876e-03	-6.631089e-04	-5.275996e-04	1.205905e-03	1.217479e-03	1.389709e-03	1.460789e-03	2.207277e-03	1.411947e-03	1.396270e-03	3.670838e-03	8.420175e-04	8.749795e-04	7.269010e-04	7.526350e-04	-1.328017e-03	1.292615e-03	1.334136e-03	7.659495e-05	1.469217e-04	1.043275e-03	1.089340e-03	1.810429e-03	1.989107e-03	1.438715e-03	1.432065e-03	-1.847455e-04	-8.898894e-05	-1.340246e-06	1.138378e-03	1.185240e-03	-1.143992e-03	-9.709072e-04	-8.096260e-04	6.466891e-04	6.663552e-04	6.841906e-04	2.679360e-04	3.188722e-04	3.655851e-04	4.426893e-04	4.734032e-04	5.935354e-04	6.109164e-04	5.036594e-04	4.656219e-03	1.396757e-03	1.480072e-03	-3.823579e-03	1.541160e-03	1.584848e-03	1.608232e-03	1.677643e-03	-2.807632e-03	4.067775e-03	4.354990e-03	1.695156e-03	1.751099e-03	2.553206e-03	2.683570e-03	2.826227e-03	-9.151226e-04	-2.694588e-03	-2.581374e-03	-2.265818e-03	-2.156079e-03	-2.048055e-03	-1.815165e-03	-1.703059e-03	-1.582414e-03	-1.327856e-03	-1.194550e-03	-1.057120e-03	-7.699405e-04	-6.213004e-04	-4.688562e-04	-1.728938e-07	9.199044e-04	1.051853e-03	1.587987e-04	3.162093e-04	4.721137e-04	1.881747e-03	1.954511e-03	2.031171e-03	2.117055e-03	2.209462e-03	4.966708e-03	5.277009e-03	1.344233e-03	1.317663e-03	1.288770e-03	9.116458e-04	9.548717e-04	5.573388e-03	5.823199e-03	3.156878e-03	3.350738e-03	3.568186e-03	1.694179e-03	1.757961e-03	1.859614e-03	1.898555e-03	-3.173566e-03	-3.045195e-03	-2.926674e-03	1.233194e-03	1.276854e-03	1.319424e-03	5.286252e-04	5.530727e-04	-2.551321e-03	-3.503647e-04	-5.689082e-03	-4.152914e-03	9.125812e-04	-1.830824e-03	4.662939e-03	1.133350e-03	1.166290e-03	-1.452848e-03	-4.990459e-03	1.440626e-03	-2.685681e-03	4.560561e-03	-2.507782e-03	-3.378895e-03	-5.291861e-03	-9.565296e-04	1.095295e-05	-4.087885e-04	-5.325329e-03	2.206746e-03	1.222196e-03	1.132592e-04	-1.820171e-03	6.135085e-04	-4.535359e-04	6.901811e-04	4.672025e-04	-4.402534e-03	9.487591e-04	-3.228733e-03	-3.092648e-03	-1.286055e-03	2.681222e-03	1.986940e-03	2.247233e-03	4.068944e-03	1.105840e-03	-7.365677e-03	-4.681742e-03	3.014663e-03	1.573373e-03	-2.006731e-03	1.267574e-03	-2.628363e-03	1.260537e-03	1.284511e-03	-2.188853e-03	2.481719e-03	-2.360862e-03	-1.773887e-03	1.336760e-03	2.110903e-03	-1.423277e-03	3.599333e-03	-1.401637e-04	-2.298530e-03	2.160370e-03	2.041357e-03	1.996704e-03	1.225913e-03	1.232723e-03	-3.925708e-03	2.047247e-03	5.241001e-04	-2.710734e-03	-2.416621e-03	-1.630147e-03	1.467248e-03	2.035859e-03	7.929578e-04	1.134359e-03	1.114907e-03	1.095884e-03	1.094227e-03	-6.887699e-04	-5.664748e-04	1.093459e-03	1.101174e-03	1.117546e-03	1.307698e-03	1.379078e-03	1.262987e-03	1.229195e-03	2.704433e-03	7.232125e-04	7.572015e-04	6.344516e-04	6.636928e-04	1.204567e-03	1.249388e-03	-1.270242e-05	4.908382e-05	9.429549e-04	1.701745e-03	1.856175e-03	1.274888e-03	1.259397e-03	-2.539677e-04	-1.682508e-04	-8.400517e-05	9.973329e-04	1.027214e-03	-1.282883e-03	-1.118938e-03	-9.621786e-04	-8.199164e-04	5.271167e-04	5.484078e-04	5.676962e-04	5.904175e-04	1.633698e-04	2.149804e-04	2.564845e-04	2.979198e-04	3.312394e-04	5.084635e-04	4.868864e-04	3.650531e-04	1.541793e-03	-3.723900e-03	-3.543041e-03	1.610293e-03	1.665670e-03	1.702925e-03	1.729260e-03	1.760109e-03	4.270861e-03	4.462092e-03	2.024024e-03	2.080007e-03	2.797893e-03	2.915561e-03	3.043222e-03	3.180756e-03	-2.609682e-03	-2.502528e-03	-2.397492e-03	-2.195536e-03	-2.092422e-03	-1.984656e-03	-1.878250e-03	-1.651879e-03	-1.531551e-03	-1.424144e-03	-1.164806e-03	-1.020388e-03	-8.909635e-04	-7.402110e-04	-6.028022e-04	-4.462805e-04	-3.005828e-04	1.206182e-03	1.073644e-03	1.715678e-04	3.260754e-04	4.867754e-04	6.451482e-04	2.154743e-03	2.229814e-03	2.309367e-03	2.392401e-03	2.478455e-03	2.575824e-03	4.639244e-03	4.800880e-03	1.194223e-03	1.168500e-03	1.151758e-03	7.865034e-04	8.333784e-04	8.621486e-04	4.936313e-03	5.006143e-03	4.938033e-03	3.331489e-03	3.496762e-03	3.682572e-03	3.874703e-03	1.814067e-03	1.910145e-03	2.033741e-03	2.138469e-03	-2.723014e-03	-2.962298e-03	-2.844998e-03	1.082532e-03	1.108612e-03	1.161357e-03	1.179854e-03	3.929481e-04	4.211092e-04	4.434430e-04	-2.010307e-03	-5.111525e-03	1.352761e-03	-8.019743e-03	-2.160429e-03	1.137083e-03	-3.976201e-04	-2.289965e-03	-3.770945e-03	-2.473137e-03	-1.529063e-03	3.012712e-05	2.962923e-03	2.852139e-03	-3.054813e-04	-1.784008e-03	-2.094978e-03	-2.191908e-03	-2.092382e-03	-2.545275e-03	2.464038e-03	2.318507e-03	1.441761e-03	1.939894e-03	1.083249e-03	1.101666e-03	5.371795e-04	-4.607774e-03	-2.556506e-03	-2.877710e-03	1.114628e-03	1.349654e-03	7.248717e-05	-1.070331e-03	1.525416e-03	8.086213e-04	2.268572e-03	-4.394634e-03	-4.918770e-04	-8.334533e-03	-3.962655e-03	-2.250022e-03	4.980734e-03	5.549374e-03	1.061091e-03	-1.380438e-03	-2.518340e-03	3.650928e-03	-2.385851e-03	-3.134133e-03	-9.067826e-04	-3.071919e-03	-4.044656e-04	-1.856466e-03	4.124110e-04	3.807682e-04	-4.163552e-03	9.117336e-04	-3.004347e-03	1.785468e-03	1.116157e-03	-1.377576e-03	2.308946e-03	2.263003e-03	2.199067e-03	1.080275e-03	1.723294e-03	5.704953e-04	-2.424953e-03	-1.692004e-03	1.025867e-03	1.025502e-03	1.008730e-03	1.012116e-03	-5.959320e-04	-7.055674e-04	1.000768e-03	1.011157e-03	1.014991e-03	1.025707e-03	1.212807e-03	1.277112e-03	1.122460e-03	2.071204e-03	6.266192e-04	6.505781e-04	5.696566e-04	5.879485e-04	1.116586e-03	1.159487e-03	-8.726671e-05	-1.650800e-05	1.544827e-03	1.660404e-03	1.126312e-03	-3.089717e-04	-2.190121e-04	-1.519085e-04	8.829545e-04	-1.232069e-03	-1.084911e-03	-9.484573e-04	-8.233329e-04	4.246913e-04	4.549003e-04	4.673927e-04	4.988232e-04	5.157407e-04	9.193127e-05	1.276424e-04	1.808067e-04	2.080676e-04	2.534256e-04	-3.592778e-03	-3.427735e-03	-3.276091e-03	1.618402e-03	1.676072e-03	1.732140e-03	1.764353e-03	1.797293e-03	4.163030e-03	4.253377e-03	2.204666e-03	2.223198e-03	3.058728e-03	3.176088e-03	3.313142e-03	-2.438346e-03	-2.347516e-03	-2.241618e-03	-2.154909e-03	-2.043195e-03	-1.948152e-03	-1.832796e-03	-1.676964e-03	-1.495069e-03	-1.320439e-03	-7.999996e-04	-5.201667e-04	-2.281979e-04	3.780422e-04	6.774988e-04	2.294190e-03	2.368743e-03	2.462949e-03	2.547593e-03	2.635134e-03	2.738219e-03	2.841227e-03	4.312410e-03	4.352612e-03	1.066685e-03	1.061799e-03	1.044095e-03	6.810242e-04	7.377199e-04	4.360493e-03	4.289785e-03	4.084441e-03	3.450481e-03	3.593899e-03	3.750469e-03	3.900181e-03	4.034892e-03	1.829052e-03	1.885706e-03	1.962010e-03	2.111714e-03	-2.762606e-03	-2.655711e-03	9.569210e-04	1.024813e-03	2.757435e-04	3.158698e-04	3.324485e-04	3.668680e-04	5.696887e-03	-8.384791e-03	-2.081553e-03	-2.055125e-03	1.535552e-03	1.268076e-03	-3.901542e-03	-1.301018e-03	-3.017292e-03	2.372605e-03	1.410690e-03	-2.402827e-03	-1.430498e-03	-1.965149e-03	2.198868e-03	-4.960989e-03	1.400327e-03	-8.308485e-04	-1.839002e-03	1.204963e-03	6.706171e-04	-3.727407e-03	3.275637e-04	9.937665e-04	9.627766e-04	8.632648e-04	-4.303952e-04	-4.088971e-06	-2.323915e-03	4.903148e-04	-6.119127e-04	-5.191036e-04	3.175648e-03	-3.423202e-03	-2.437850e-03	-1.691156e-03	2.253334e-03	1.147768e-03	-7.899486e-03	-3.569396e-03	-2.157423e-03	-2.417813e-03	1.499892e-03	9.962275e-04	1.434011e-03	1.603393e-03	-4.097075e-03	-1.781480e-03	-5.081831e-03	-2.332723e-03	5.032079e-03	-1.303986e-03	-2.220951e-03	-2.161543e-03	1.018278e-03	-1.563826e-03	-2.900074e-03	-2.789638e-03	1.228768e-03	2.364487e-03	2.346480e-03	9.848186e-04	5.248011e-04	-2.320199e-04	-1.707620e-03	9.340968e-04	9.266690e-04	-7.141686e-04	9.295546e-04	9.324262e-04	1.097787e-03	1.608657e-03	5.437161e-04	1.019971e-03	1.055633e-03	-1.089708e-04	1.335055e-03	9.910784e-04	9.835790e-04	-3.040362e-04	-2.073219e-04	7.348672e-04	-1.172729e-03	-1.039781e-03	-9.248081e-04	-8.188948e-04	3.726362e-04	4.193615e-04	4.481962e-04	8.415797e-05	1.595602e-04	-3.280369e-03	-3.145110e-03	1.722071e-03	1.798034e-03	3.990054e-03	2.341337e-03	3.344151e-03	-1.305042e-03	-2.244435e-03	-2.048316e-03	-1.845065e-03	-1.649305e-03	-1.475613e-03	-1.096438e-03	-8.450447e-04	-5.802243e-04	-3.077785e-04	-2.549717e-05	2.635322e-04	5.507044e-04	8.072857e-04	2.458256e-03	2.634501e-03	2.798000e-03	2.906015e-03	3.022759e-03	3.951261e-03	3.901300e-03	9.679755e-04	9.614766e-04	9.401630e-04	5.788974e-04	6.142234e-04	3.821032e-03	3.658345e-03	3.365814e-03	2.917975e-03	3.480129e-03	3.608022e-03	3.735319e-03	3.848125e-03	3.923081e-03	4.021758e-03	1.867465e-03	1.966847e-03	-2.699692e-03	-2.579853e-03	8.009432e-04	9.174174e-04	9.585726e-04	2.245276e-04	2.791525e-04	-4.192780e-03	4.417998e-03	4.395410e-03	-5.464406e-03	-9.447556e-04	-3.716444e-03	-3.400031e-03	1.998303e-03	-1.957771e-03	-1.677086e-03	2.711891e-03	1.634720e-03	4.275687e-04	-1.590729e-03	-2.340621e-03	-2.986694e-03	8.829625e-04	1.965689e-03	-4.667927e-03	8.398951e-04	-1.441122e-03	3.715000e-03	1.108173e-03	-1.883839e-03	3.952360e-04	8.935564e-04	7.950384e-04	6.266394e-04	1.025490e-03	1.063461e-03	-1.332831e-03	-1.222646e-03	-6.290422e-03	-3.362804e-03	-3.505381e-03	-2.774830e-03	2.378716e-03	8.754418e-04	8.662983e-04	-7.096963e-04	-7.176741e-03	-7.255490e-03	-2.198499e-03	9.895198e-04	-2.877394e-03	-8.295875e-05	1.111082e-03	-1.209592e-03	-1.781016e-03	5.702773e-04	-2.243984e-03	-6.249681e-04	-5.402024e-04	-3.230926e-03	-1.979662e-03	9.595829e-04	1.159855e-03	8.806074e-04	-2.332995e-03	3.102458e-03	-8.046389e-04	-2.067736e-03	-1.989150e-03	1.280928e-03	-1.562537e-03	-2.678807e-03	1.079442e-03	2.204164e-03	6.489822e-04	-2.036568e-04	-7.510704e-04	8.298680e-04	8.319513e-04	8.533688e-04	8.767315e-04	1.269799e-03	4.418564e-04	9.114355e-04	9.330222e-04	3.596861e-04	8.554199e-04	8.465115e-04	8.792007e-04	-4.430606e-04	-3.356528e-04	-2.483764e-04	-1.100454e-03	2.675346e-04	3.165369e-04	-1.514731e-04	-5.618730e-05	8.370731e-04	-3.105964e-03	1.470145e-03	1.621118e-03	3.293333e-03	-2.211739e-03	-2.016474e-03	-1.289024e-03	-1.815925e-03	-1.624831e-03	-1.451482e-03	-1.112638e-03	-9.000230e-04	-6.598369e-04	-4.081540e-04	-1.483690e-04	1.207228e-04	3.924586e-04	2.414925e-03	2.451995e-03	2.583565e-03	2.765259e-03	2.952752e-03	3.137728e-03	3.556178e-03	3.440043e-03	8.692636e-04	8.354522e-04	4.890431e-04	5.254466e-04	3.305788e-03	3.096538e-03	2.766574e-03	2.324424e-03	1.767873e-03	3.421241e-03	3.531212e-03	3.631214e-03	3.699867e-