# vtk DataFile Version 3.0
vtk output
ASCII
DATASET UNSTRUCTURED_GRID
POINTS 5233 float
9.997500e-01	-3.632909e-05	0.0	9.990000e-01	-1.452618e-04	0.0	9.977600e-01	-3.252008e-04	0.0	9.960200e-01	-5.774943e-04	0.0	9.937800e-01	-9.022942e-04	0.0	9.910500e-01	-1.298763e-03	0.0	9.878400e-01	-1.766726e-03	0.0	9.841300e-01	-2.311194e-03	0.0	9.799500e-01	-2.930640e-03	0.0	9.752800e-01	-3.631444e-03	0.0	9.701500e-01	-4.412625e-03	0.0	9.645400e-01	-5.280292e-03	0.0	9.584700e-01	-6.233365e-03	0.0	9.519400e-01	-7.272227e-03	0.0	9.449600e-01	-8.393908e-03	0.0	9.375400e-01	-9.593773e-03	0.0	9.296900e-01	-1.086609e-02	0.0	9.214000e-01	-1.220804e-02	0.0	9.127000e-01	-1.361074e-02	0.0	9.035800e-01	-1.507272e-02	0.0	8.940600e-01	-1.658877e-02	0.0	8.841500e-01	-1.815610e-02	0.0	8.738500e-01	-1.977361e-02	0.0	8.631800e-01	-2.143627e-02	0.0	8.521600e-01	-2.313752e-02	0.0	8.407700e-01	-2.487471e-02	0.0	8.290500e-01	-2.663345e-02	0.0	8.170100e-01	-2.840162e-02	0.0	8.046400e-01	-3.016792e-02	0.0	7.919700e-01	-3.191393e-02	0.0	7.790100e-01	-3.362378e-02	0.0	7.657800e-01	-3.528073e-02	0.0	7.522800e-01	-3.687177e-02	0.0	7.385200e-01	-3.838440e-02	0.0	7.245300e-01	-3.980643e-02	0.0	7.103200e-01	-4.113073e-02	0.0	6.958900e-01	-4.235375e-02	0.0	6.812700e-01	-4.347212e-02	0.0	6.664700e-01	-4.448693e-02	0.0	6.515000e-01	-4.540154e-02	0.0	6.363800e-01	-4.622067e-02	0.0	6.211300e-01	-4.695082e-02	0.0	6.057600e-01	-4.760016e-02	0.0	5.902800e-01	-4.817747e-02	0.0	5.747100e-01	-4.869148e-02	0.0	5.590600e-01	-4.915119e-02	0.0	5.433600e-01	-4.956464e-02	0.0	5.276100e-01	-4.993996e-02	0.0	5.118400e-01	-5.028359e-02	0.0	4.960500e-01	-5.060149e-02	0.0	4.802700e-01	-5.089775e-02	0.0	4.645100e-01	-5.117554e-02	0.0	4.487800e-01	-5.143670e-02	0.0	4.331100e-01	-5.168146e-02	0.0	4.175000e-01	-5.190932e-02	0.0	4.019700e-01	-5.211839e-02	0.0	3.865400e-01	-5.230586e-02	0.0	3.712300e-01	-5.246816e-02	0.0	3.560400e-01	-5.260130e-02	0.0	3.409900e-01	-5.270061e-02	0.0	3.261100e-01	-5.276113e-02	0.0	3.114000e-01	-5.277790e-02	0.0	2.968700e-01	-5.274582e-02	0.0	2.825500e-01	-5.265996e-02	0.0	2.684500e-01	-5.251559e-02	0.0	2.545700e-01	-5.230801e-02	0.0	2.409400e-01	-5.203324e-02	0.0	2.275700e-01	-5.168749e-02	0.0	2.144700e-01	-5.126729e-02	0.0	2.016600e-01	-5.076993e-02	0.0	1.891400e-01	-5.019238e-02	0.0	1.769300e-01	-4.953284e-02	0.0	1.650400e-01	-4.878952e-02	0.0	1.534900e-01	-4.796177e-02	0.0	1.422900e-01	-4.704883e-02	0.0	1.314400e-01	-4.604934e-02	0.0	1.209500e-01	-4.496296e-02	0.0	1.108500e-01	-4.379208e-02	0.0	1.011300e-01	-4.253503e-02	0.0	9.181000e-02	-4.119389e-02	0.0	8.290000e-02	-3.976997e-02	0.0	7.440000e-02	-3.826304e-02	0.0	6.633000e-02	-3.667657e-02	0.0	5.869000e-02	-3.501058e-02	0.0	5.149000e-02	-3.326708e-02	0.0	4.474000e-02	-3.144844e-02	0.0	3.844000e-02	-2.955433e-02	0.0	3.260000e-02	-2.758711e-02	0.0	2.723000e-02	-2.554977e-02	0.0	2.232000e-02	-2.343708e-02	0.0	1.790000e-02	-2.126113e-02	0.0	1.395000e-02	-1.901092e-02	0.0	1.049000e-02	-1.669561e-02	0.0	7.520000e-03	-1.431461e-02	0.0	5.040000e-03	-1.186637e-02	0.0	3.050000e-03	-9.347302e-03	0.0	1.560000e-03	-6.769269e-03	0.0	5.600000e-04	-4.108233e-03	0.0	6.000000e-05	-1.363608e-03	0.0	0.000000e+00	0.000000e+00	0.0	6.000000e-05	1.350236e-03	0.0	5.600000e-04	4.050826e-03	0.0	1.560000e-03	6.663226e-03	0.0	3.050000e-03	9.195473e-03	0.0	5.040000e-03	1.167583e-02	0.0	7.520000e-03	1.409653e-02	0.0	1.049000e-02	1.646478e-02	0.0	1.395000e-02	1.878581e-02	0.0	1.790000e-02	2.106403e-02	0.0	2.232000e-02	2.329392e-02	0.0	2.723000e-02	2.549065e-02	0.0	3.260000e-02	2.764558e-02	0.0	3.844000e-02	2.976800e-02	0.0	4.474000e-02	3.185849e-02	0.0	5.149000e-02	3.391797e-02	0.0	5.869000e-02	3.595015e-02	0.0	6.633000e-02	3.795531e-02	0.0	7.440000e-02	3.993367e-02	0.0	8.290000e-02	4.188739e-02	0.0	9.181000e-02	4.381361e-02	0.0	1.011300e-01	4.571359e-02	0.0	1.108500e-01	4.758588e-02	0.0	1.209500e-01	4.942683e-02	0.0	1.314400e-01	5.123782e-02	0.0	1.422900e-01	5.301272e-02	0.0	1.534900e-01	5.474871e-02	0.0	1.650400e-01	5.644398e-02	0.0	1.769300e-01	5.809472e-02	0.0	1.891400e-01	5.969553e-02	0.0	2.016600e-01	6.124223e-02	0.0	2.144700e-01	6.272926e-02	0.0	2.275700e-01	6.415328e-02	0.0	2.409400e-01	6.550849e-02	0.0	2.545700e-01	6.679020e-02	0.0	2.684500e-01	6.799357e-02	0.0	2.825500e-01	6.911218e-02	0.0	2.968700e-01	7.014214e-02	0.0	3.114000e-01	7.107860e-02	0.0	3.261100e-01	7.191555e-02	0.0	3.409900e-01	7.264840e-02	0.0	3.560400e-01	7.327286e-02	0.0	3.712300e-01	7.378330e-02	0.0	3.865400e-01	7.417483e-02	0.0	4.019700e-01	7.444303e-02	0.0	4.175000e-01	7.458295e-02	0.0	4.331100e-01	7.458992e-02	0.0	4.487800e-01	7.445955e-02	0.0	4.645100e-01	7.418745e-02	0.0	4.802700e-01	7.376991e-02	0.0	4.960500e-01	7.320341e-02	0.0	5.118400e-01	7.248482e-02	0.0	5.276100e-01	7.161270e-02	0.0	5.433600e-01	7.058503e-02	0.0	5.590600e-01	6.940265e-02	0.0	5.747100e-01	6.806549e-02	0.0	5.902800e-01	6.657731e-02	0.0	6.057600e-01	6.494175e-02	0.0	6.211300e-01	6.316504e-02	0.0	6.363800e-01	6.125402e-02	0.0	6.515000e-01	5.921698e-02	0.0	6.664700e-01	5.706516e-02	0.0	6.812700e-01	5.481151e-02	0.0	6.958900e-01	5.246892e-02	0.0	7.103200e-01	5.005129e-02	0.0	7.245300e-01	4.757686e-02	0.0	7.385200e-01	4.505941e-02	0.0	7.522800e-01	4.251466e-02	0.0	7.657800e-01	3.996213e-02	0.0	7.790100e-01	3.741749e-02	0.0	7.919700e-01	3.489399e-02	0.0	8.046400e-01	3.240819e-02	0.0	8.170100e-01	2.997405e-02	0.0	8.290500e-01	2.760884e-02	0.0	8.407700e-01	2.532127e-02	0.0	8.521600e-01	2.312328e-02	0.0	8.631800e-01	2.103157e-02	0.0	8.738500e-01	1.905016e-02	0.0	8.841500e-01	1.718895e-02	0.0	8.940600e-01	1.545535e-02	0.0	9.035800e-01	1.385019e-02	0.0	9.127000e-01	1.237271e-02	0.0	9.214000e-01	1.102010e-02	0.0	9.296900e-01	9.781662e-03	0.0	9.375400e-01	8.650401e-03	0.0	9.449600e-01	7.612208e-03	0.0	9.519400e-01	6.656126e-03	0.0	9.584700e-01	5.772587e-03	0.0	9.645400e-01	4.954359e-03	0.0	9.701500e-01	4.195689e-03	0.0	9.752800e-01	3.496291e-03	0.0	9.799500e-01	2.852720e-03	0.0	9.841300e-01	2.270023e-03	0.0	9.878400e-01	1.747228e-03	0.0	9.910500e-01	1.290667e-03	0.0	9.937800e-01	8.994899e-04	0.0	9.960200e-01	5.767420e-04	0.0	9.977600e-01	3.250644e-04	0.0	9.990000e-01	1.452495e-04	0.0	9.997500e-01	3.632890e-05	0.0	1.000000e+00	0.000000e+00	0.0	1.984229e+01	2.506660e+00	0.0	1.937166e+01	4.973800e+00	0.0	1.859553e+01	7.362490e+00	0.0	1.752613e+01	9.635070e+00	0.0	1.618034e+01	1.175571e+01	0.0	1.457937e+01	1.369094e+01	0.0	1.274848e+01	1.541027e+01	0.0	1.071654e+01	1.688656e+01	0.0	8.515590e+00	1.809654e+01	0.0	6.180340e+00	1.902113e+01	0.0	3.747630e+00	1.964575e+01	0.0	1.255810e+00	1.996053e+01	0.0	-1.255810e+00	1.996053e+01	0.0	-3.747630e+00	1.964574e+01	0.0	-6.180340e+00	1.902113e+01	0.0	-8.515590e+00	1.809654e+01	0.0	-1.071654e+01	1.688656e+01	0.0	-1.274848e+01	1.541026e+01	0.0	-1.457937e+01	1.369094e+01	0.0	-1.618034e+01	1.175570e+01	0.0	-1.752613e+01	9.635070e+00	0.0	-1.859553e+01	7.362490e+00	0.0	-1.937166e+01	4.973800e+00	0.0	-1.984229e+01	2.506660e+00	0.0	-2.000000e+01	0.000000e+00	0.0	-1.984229e+01	-2.506670e+00	0.0	-1.937166e+01	-4.973800e+00	0.0	-1.859553e+01	-7.362490e+00	0.0	-1.752613e+01	-9.635080e+00	0.0	-1.618034e+01	-1.175571e+01	0.0	-1.457937e+01	-1.369094e+01	0.0	-1.274848e+01	-1.541027e+01	0.0	-1.071653e+01	-1.688656e+01	0.0	-8.515580e+00	-1.809654e+01	0.0	-6.180340e+00	-1.902113e+01	0.0	-3.747620e+00	-1.964575e+01	0.0	-1.255810e+00	-1.996053e+01	0.0	1.255810e+00	-1.996053e+01	0.0	3.747630e+00	-1.964574e+01	0.0	6.180340e+00	-1.902113e+01	0.0	8.515590e+00	-1.809654e+01	0.0	1.071654e+01	-1.688656e+01	0.0	1.274848e+01	-1.541026e+01	0.0	1.457937e+01	-1.369094e+01	0.0	1.618034e+01	-1.175570e+01	0.0	1.752614e+01	-9.635070e+00	0.0	1.859553e+01	-7.362490e+00	0.0	1.937166e+01	-4.973790e+00	0.0	1.984229e+01	-2.506660e+00	0.0	2.000000e+01	0.000000e+00	0.0	6.093892e-02	-4.285144e-02	0.0	6.600410e-01	-5.844939e-02	0.0	4.255297e-01	8.863687e-02	0.0	6.904536e-01	6.677179e-02	0.0	3.791252e-01	-6.656260e-02	0.0	9.994589e-01	-7.258723e-04	0.0	9.985402e-01	-1.320872e-03	0.0	7.738251e-01	-4.634860e-02	0.0	6.897588e-01	-5.606349e-02	0.0	-1.367138e-03	6.233161e-03	0.0	7.467650e-01	-4.997311e-02	0.0	5.838090e-01	8.122916e-02	0.0	9.927651e-01	-3.598793e-03	0.0	9.898616e-01	-4.480982e-03	0.0	5.994275e-01	7.958836e-02	0.0	7.187102e-01	-5.322760e-02	0.0	-1.548094e-03	7.305687e-04	0.0	9.864673e-01	-5.441292e-03	0.0	9.825916e-01	-6.470515e-03	0.0	-1.358171e-03	-6.336027e-03	0.0	6.449375e-01	-5.947833e-02	0.0	8.244939e-01	-3.842106e-02	0.0	7.997632e-01	-4.246746e-02	0.0	3.482204e-01	8.660152e-02	0.0	8.478910e-01	-3.434813e-02	0.0	2.468390e-01	7.862192e-02	0.0	8.698983e-01	-3.032503e-02	0.0	1.001408e-02	2.079824e-02	0.0	8.904116e-01	-2.642047e-02	0.0	7.722818e-02	-4.682321e-02	0.0	9.093595e-01	-2.267674e-02	0.0	-1.865007e-03	-3.138557e-03	0.0	9.422484e-01	-1.580904e-02	0.0	9.266631e-01	-1.912583e-02	0.0	1.806769e-02	-2.637803e-02	0.0	4.256782e-01	-6.623083e-02	0.0	8.590773e-01	-3.232303e-02	0.0	9.560748e-01	-1.276843e-02	0.0	9.782290e-01	-7.589010e-03	0.0	9.680882e-01	-1.002215e-02	0.0	1.584746e-01	-5.900398e-02	0.0	9.000881e-01	-2.452666e-02	0.0	7.604299e-01	-4.820093e-02	0.0	9.971132e-01	-2.058079e-03	0.0	5.988429e-01	-6.197001e-02	0.0	4.413590e-01	-6.604490e-02	0.0	5.361230e-01	-6.418097e-02	0.0	4.728882e-01	-6.557080e-02	0.0	5.045102e-01	-6.495629e-02	0.0	4.886866e-01	-6.528085e-02	0.0	1.251652e-01	-5.514410e-02	0.0	2.799454e-02	-3.148915e-02	0.0	3.945492e-01	-6.649285e-02	0.0	4.640172e-02	-3.855324e-02	0.0	4.100682e-01	-6.638196e-02	0.0	3.187978e-01	-6.636792e-02	0.0	3.486567e-01	-6.657206e-02	0.0	3.367005e-02	-3.391128e-02	0.0	2.896281e-01	-6.592628e-02	0.0	9.346743e-01	-1.743395e-02	0.0	1.470184e-01	-5.780948e-02	0.0	1.948400e-01	-6.200962e-02	0.0	8.600599e-02	-4.867547e-02	0.0	1.048018e-01	-5.210645e-02	0.0	5.676108e-01	-6.321237e-02	0.0	1.702734e-01	-6.010386e-02	0.0	6.143295e-01	-6.122907e-02	0.0	8.803501e-01	-2.835590e-02	0.0	2.280418e-02	-2.897635e-02	0.0	9.951875e-01	-2.803889e-03	0.0	6.796488e-03	-1.820110e-02	0.0	1.798544e-02	2.626178e-02	0.0	9.182203e-01	-2.087471e-02	0.0	9.49388
[...]
POINT_DATA 5233

SCALARS Conservative_1 float 1
LOOKUP_TABLE default
1.333063e-02	6.014912e-03	4.749826e-03	3.807533e-03	3.211181e-03	2.763214e-03	2.414243e-03	2.137621e-03	1.918351e-03	1.744241e-03	1.607420e-03	1.501545e-03	1.421719e-03	1.363631e-03	1.323890e-03	1.298034e-03	1.284815e-03	1.277006e-03	1.274910e-03	1.278549e-03	1.292277e-03	1.311347e-03	1.338549e-03	1.375989e-03	1.420964e-03	1.476288e-03	1.536533e-03	1.603754e-03	1.672063e-03	1.740317e-03	1.806013e-03	1.862009e-03	1.911045e-03	1.942883e-03	1.963834e-03	1.966239e-03	1.956794e-03	1.930079e-03	1.893531e-03	1.842745e-03	1.786537e-03	1.721118e-03	1.654452e-03	1.583382e-03	1.514561e-03	1.445153e-03	1.380368e-03	1.318000e-03	1.261145e-03	1.208739e-03	1.161892e-03	1.119780e-03	1.082421e-03	1.050630e-03	1.022165e-03	9.989133e-04	9.778570e-04	9.606375e-04	9.443131e-04	9.304645e-04	9.162657e-04	9.030193e-04	8.879732e-04	8.728451e-04	8.545017e-04	8.346879e-04	8.104898e-04	7.833967e-04	7.511388e-04	7.145527e-04	6.722186e-04	6.237765e-04	5.691458e-04	5.070542e-04	4.378015e-04	3.603293e-04	2.737726e-04	1.783634e-04	7.256172e-05	-4.368113e-05	-1.720009e-04	-3.127131e-04	-4.672449e-04	-6.364603e-04	-8.223276e-04	-1.025356e-03	-1.248274e-03	-1.491292e-03	-1.756226e-03	-2.042266e-03	-2.347597e-03	-2.659174e-03	-2.975702e-03	-3.288945e-03	-3.430053e-03	-3.243306e-03	-2.978426e-03	-2.719221e-03	-2.249184e-03	-1.791243e-03	-1.389112e-03	-3.948478e-04	7.699776e-04	1.067576e-03	2.515474e-03	6.616134e-03	1.037483e-02	1.118304e-02	1.008657e-02	8.828685e-03	7.850602e-03	7.002824e-03	6.227927e-03	5.535544e-03	4.928976e-03	4.409390e-03	3.960219e-03	3.577517e-03	3.245625e-03	2.954268e-03	2.701068e-03	2.470885e-03	2.264355e-03	2.076731e-03	1.907805e-03	1.758495e-03	1.624235e-03	1.501824e-03	1.395073e-03	1.298457e-03	1.216916e-03	1.142837e-03	1.074023e-03	1.007086e-03	9.412145e-04	8.904643e-04	8.625951e-04	8.761369e-04	9.402128e-04	1.085323e-03	1.297698e-03	1.511980e-03	1.620336e-03	1.615329e-03	1.550466e-03	1.475663e-03	1.398662e-03	1.313371e-03	1.216201e-03	1.103928e-03	9.841631e-04	8.547319e-04	7.228636e-04	5.841816e-04	4.385511e-04	2.914003e-04	1.367172e-04	-1.596062e-05	-1.697043e-04	-3.242438e-04	-4.750164e-04	-6.269504e-04	-7.724468e-04	-9.182250e-04	-1.056244e-03	-1.193776e-03	-1.322959e-03	-1.450988e-03	-1.570518e-03	-1.688949e-03	-1.799444e-03	-1.909569e-03	-2.011590e-03	-2.113733e-03	-2.211754e-03	-2.306642e-03	-2.400033e-03	-2.491117e-03	-2.586046e-03	-2.682239e-03	-2.787191e-03	-2.892613e-03	-2.999158e-03	-3.107578e-03	-3.228077e-03	-3.360727e-03	-3.510904e-03	-3.679386e-03	-3.870865e-03	-4.088658e-03	-4.338593e-03	-4.626936e-03	-4.962894e-03	-5.357550e-03	-5.827841e-03	-6.397499e-03	-7.230800e-03	-8.021110e-03	-1.398479e-02	-7.662000e-04	-8.164193e-06	-7.825889e-06	-7.362198e-06	-6.890319e-06	-6.255926e-06	-5.545314e-06	-4.651433e-06	-3.617178e-06	-2.450619e-06	-1.104527e-06	7.338070e-07	2.947492e-06	5.477849e-06	7.855786e-06	9.408803e-06	1.067097e-05	1.113578e-05	1.111044e-05	1.069167e-05	1.010570e-05	9.555195e-06	8.009205e-06	8.498493e-06	1.445618e-05	9.999072e-06	8.249724e-06	9.430363e-06	7.617160e-06	-1.050219e-07	-4.839777e-07	-9.360355e-07	-1.706885e-06	-2.177631e-06	-2.774210e-06	-3.483913e-06	-4.174146e-06	-4.381897e-06	-5.010592e-06	-4.922716e-06	-5.772937e-06	-6.958416e-06	-7.715995e-06	-8.282088e-06	-8.644991e-06	-8.852609e-06	-8.960922e-06	-8.963273e-06	-8.843932e-06	-8.617336e-06	-8.448803e-06	-6.715867e-04	1.647296e-03	1.709959e-03	-5.195791e-04	8.410933e-04	1.005661e-02	6.864562e-03	1.638145e-03	1.714200e-03	-3.573225e-04	1.708585e-03	5.799378e-04	3.175964e-03	2.683830e-03	4.259335e-04	1.736212e-03	-1.694631e-03	2.321959e-03	2.048313e-03	-2.789764e-03	1.601269e-03	1.433456e-03	1.539242e-03	1.647860e-03	1.340396e-03	1.468979e-03	1.273709e-03	9.083408e-03	1.242198e-03	-3.688250e-04	1.243758e-03	-2.480218e-03	1.286772e-03	1.253170e-03	-2.226146e-03	9.062438e-04	1.302702e-03	1.374358e-03	1.836563e-03	1.544493e-03	3.998312e-04	1.239916e-03	1.679172e-03	4.945105e-03	1.429480e-03	9.347008e-04	1.191706e-03	1.003077e-03	1.089260e-03	1.044220e-03	1.814913e-04	-1.700110e-03	8.598598e-04	-1.033068e-03	8.819258e-04	7.786689e-04	8.082527e-04	-1.460145e-03	7.471101e-04	1.265452e-03	3.351741e-04	5.544115e-04	-2.369538e-04	-7.423865e-06	1.307328e-03	4.578766e-04	1.490513e-03	1.252943e-03	-1.955872e-03	3.877230e-03	-3.041417e-03	8.344304e-03	1.248149e-03	1.322105e-03	1.671841e-03	2.338125e-04	1.383571e-03	6.856455e-04	1.248624e-03	1.729145e-03	1.591433e-03	9.183930e-05	6.288932e-04	1.368831e-03	1.686602e-03	-8.447686e-04	-3.253855e-03	-2.502457e-03	8.236442e-04	5.091191e-04	1.414985e-02	6.595248e-04	-1.166422e-04	7.630190e-04	7.090913e-04	9.666805e-04	1.732117e-03	-1.254174e-03	-3.011299e-03	1.015837e-03	-2.029568e-03	6.878438e-03	4.637653e-03	5.648801e-03	2.640760e-03	1.757008e-03	-7.517547e-03	1.148423e-03	1.489638e-03	-3.961602e-03	-3.568828e-03	-2.479317e-03	1.387961e-03	1.649175e-03	1.788899e-03	-2.915448e-03	-2.701710e-03	3.555075e-03	-4.204613e-03	-3.407382e-03	-3.137483e-03	3.045790e-03	4.224041e-03	1.334728e-03	1.415304e-03	1.927454e-03	1.384342e-03	1.576957e-03	1.785996e-03	2.167449e-03	2.466707e-03	1.088284e-04	1.733544e-03	1.586243e-03	-2.084580e-04	7.322131e-04	-1.102533e-03	-8.189787e-04	-1.615744e-03	-1.368198e-03	-2.064648e-03	-1.847855e-03	-2.588905e-03	-2.272366e-03	-3.265272e-03	-2.811286e-03	-3.751751e-03	-2.169743e-03	-2.375252e-03	-1.732572e-03	-1.957043e-03	-1.236723e-03	-1.493202e-03	-6.700696e-04	-9.618809e-04	-4.956231e-05	-3.642225e-04	8.770862e-04	2.677143e-04	1.653901e-03	1.525942e-03	2.041131e-03	1.824373e-03	5.111749e-03	2.309008e-03	9.224421e-03	6.244048e-03	5.943376e-04	2.412704e-03	1.446887e-03	1.485384e-03	7.930647e-04	1.138768e-03	3.804069e-04	7.545597e-03	6.410139e-03	3.284599e-03	3.865691e-03	1.366558e-03	2.833072e-03	-4.490346e-03	-4.830811e-03	1.332837e-03	-5.249869e-03	-5.782844e-03	1.498804e-03	1.750628e-03	-3.023613e-03	-1.601954e-02	-9.256912e-03	-1.198532e-02	1.547365e-03	-1.237973e-03	-6.495964e-03	1.272183e-03	-3.236282e-03	-2.773548e-03	-5.134708e-04	2.624391e-04	7.288876e-04	3.845515e-03	-5.921777e-04	-1.253305e-03	6.063395e-04	1.502607e-03	1.158370e-03	-2.808875e-03	8.519313e-04	1.483654e-03	1.430253e-03	2.511342e-03	6.584980e-04	1.212086e-03	1.276600e-03	-3.015806e-04	-2.791922e-03	4.757688e-04	-2.353461e-03	1.360756e-03	2.327513e-04	1.515886e-03	1.417029e-03	8.220572e-04	-4.242301e-04	7.258768e-04	1.153537e-03	1.393239e-03	5.825906e-03	7.075277e-03	-1.180106e-04	-1.902513e-03	2.993704e-03	-2.759907e-04	2.328579e-03	-2.228150e-03	-5.027433e-03	2.000258e-03	1.414525e-03	-3.255268e-03	-2.333978e-03	-5.529527e-03	-3.408920e-03	-4.295375e-03	1.887462e-03	1.926871e-03	1.940967e-03	3.171773e-03	1.452338e-03	4.378007e-04	7.507252e-03	2.555785e-03	4.824521e-03	-3.785192e-03	-6.173550e-03	-2.438480e-03	2.927077e-04	-6.506683e-03	-8.051071e-03	-7.057336e-03	2.660961e-03	-2.150750e-04	-3.015208e-03	-2.233725e-03	-1.911914e-03	-2.111013e-03	3.395472e-03	-7.050622e-04	5.362752e-03	3.542397e-03	1.911784e-03	1.063887e-03	2.178221e-03	1.170431e-03	6.912018e-04	2.947868e-03	-2.569374e-03	7.935078e-04	1.932898e-03	1.240689e-03	1.777337e-03	1.187421e-03	1.159140e-03	-5.586768e-04	1.153564e-03	1.169720e-03	1.241946e-03	-1.644313e-03	1.291690e-03	1.452248e-03	1.924869e-03	8.905235e-05	1.487320e-03	1.463121e-03	4.377655e-03	8.533963e-04	8.882311e-04	9.276630e-04	-1.872990e-03	7.455344e-04	7.689708e-04	6.737669e-04	-1.226486e-03	1.183850e-03	1.207161e-03	1.645655e-04	-1.893518e-04	1.115997e-03	1.273079e-03	1.571854e-03	1.725618e-03	1.514881e-03	1.507893e-03	-8.769392e-05	5.730195e-06	1.167143e-03	1.221920e-03	-1.039173e-03	-8.649557e-04	-2.589155e-03	6.904847e-04	7.070150e-04	3.473027e-04	3.952907e-04	5.083509e-04	5.379658e-04	6.252038e-04	6.417004e-04	5.633489e-04	-1.686584e-03	-3.114510e-03	5.230795e-03	-4.623088e-03	1.286021e-03	1.537865e-03	1.645795e-03	1.739053e-03	-4.018444e-03	-3.584456e-03	-2.770781e-03	1.813201e-03	1.872318e-03	1.949986e-03	-2.658165e-03	-3.117373e-03	4.131079e-03	4.456615e-03	1.837969e-03	1.799998e-03	2.436013e-03	2.687304e-03	2.832573e-03	-1.424356e-03	-8.837300e-04	-7.393127e-04	-1.298045e-03	-1.789226e-03	-2.546944e-03	-2.122477e-03	-2.013021e-03	-1.669837e-03	-1.551244e-03	-1.163486e-03	-1.027822e-03	-5.872558e-04	-4.349669e-04	4.516491e-05	2.065092e-04	1.002794e-03	1.148274e-03	3.702928e-04	5.325357e-04	2.000848e-03	2.069835e-03	2.145981e-03	2.233248e-03	7.546625e-03	5.671858e-03	6.134108e-03	1.354813e-03	1.313757e-03	9.698653e-04	1.016390e-03	3.437117e-04	6.602559e-03	3.371257e-03	3.593882e-03	1.838823e-03	1.788421e-03	1.980514e-03	2.012767e-03	-2.994854e-03	-2.879439e-03	1.325803e-03	1.371971e-03	-1.428021e-03	-3.005450e-03	5.867569e-04	-2.593169e-03	6.235725e-04	4.922381e-04	1.244119e-03	9.064352e-04	1.061033e-03	-4.928364e-03	-4.563484e-03	-3.367558e-03	6.143990e-04	-5.321687e-03	-9.974762e-03	-9.317388e-03	3.844310e-03	-1.630889e-03	-1.997150e-03	-1.814672e-03	-3.645576e-04	1.078756e-03	2.408075e-03	1.062768e-03	7.325637e-03	-2.780852e-03	1.316628e-03	-2.931408e-03	1.321409e-03	-2.208242e-03	1.067414e-03	-2.607390e-03	5.489382e-04	1.083927e-03	1.300604e-03	2.731475e-03	-2.417039e-03	-3.984975e-03	1.489996e-03	-3.064857e-03	8.605335e-05	-5.847910e-03	1.622909e-03	2.146245e-03	2.292772e-03	2.688758e-03	4.102524e-03	-1.001713e-02	-2.785487e-03	-8.199074e-04	6.194787e-03	-1.344034e-03	1.316954e-03	-4.770508e-04	-2.049939e-03	1.316758e-04	7.237464e-04	-1.785519e-03	4.834201e-03	-1.732258e-03	-1.245845e-03	-7.644884e-05	-4.253750e-03	-3.208542e-03	-2.267923e-03	-2.163786e-03	2.283386e-03	2.173413e-03	2.235186e-03	3.316099e-03	1.250111e-03	1.279967e-03	3.250739e-04	5.987099e-03	2.792592e-03	-3.749866e-03	-6.588779e-03	2.639824e-03	-3.368965e-04	-2.916364e-03	-2.352953e-03	-1.582464e-03	6.281607e-03	7.278382e-03	1.415614e-03	2.120600e-03	9.058300e-04	6.954802e-04	2.058927e-03	1.130770e-03	1.104239e-03	1.055873e-03	1.049903e-03	-7.345031e-04	-6.005618e-04	1.046545e-03	1.051641e-03	1.180333e-03	1.239296e-03	1.886764e-03	1.292618e-03	1.274563e-03	3.180818e-03	7.563893e-04	7.885616e-04	6.442733e-04	6.693346e-04	-1.390399e-03	1.103181e-03	1.135420e-03	-1.877804e-06	6.798359e-05	9.516372e-04	9.961702e-04	1.539425e-03	1.695379e-03	1.322991e-03	1.314397e-03	-2.611170e-04	-1.662055e-04	-7.930850e-05	1.043449e-03	1.088534e-03	-1.209072e-03	-1.038385e-03	-8.792539e-04	5.655072e-04	5.847982e-04	6.024120e-04	1.883433e-04	2.390478e-04	2.855543e-04	3.624100e-04	3.931480e-04	5.127871e-04	5.301227e-04	4.232541e-04	4.911287e-03	1.740210e-03	1.841865e-03	-3.547216e-03	1.921630e-03	1.987438e-03	2.032590e-03	2.073003e-03	-2.588587e-03	4.349665e-03	4.623025e-03	2.150529e-03	2.185874e-03	2.905618e-03	3.028736e-03	3.165670e-03	-6.939885e-04	-2.479867e-03	-2.370483e-03	-2.060813e-03	-1.952055e-03	-1.844173e-03	-1.610733e-03	-1.496869e-03	-1.374631e-03	-1.115803e-03	-9.799691e-04	-8.393158e-04	-5.448873e-04	-3.922650e-04	-2.352623e-04	2.485015e-04	1.212055e-03	1.353250e-03	4.132995e-04	5.767416e-04	7.396745e-04	2.297721e-03	2.364979e-03	2.435466e-03	2.512987e-03	2.594853e-03	5.209386e-03	5.508242e-03	1.218103e-03	1.189089e-03	1.157716e-03	8.241928e-04	8.660126e-04	5.796957e-03	6.045545e-03	3.484908e-03	3.670250e-03	3.876962e-03	2.230190e-03	2.098226e-03	2.156688e-03	2.232980e-03	-2.936273e-03	-2.814859e-03	-2.702187e-03	1.134458e-03	1.176101e-03	1.216525e-03	4.482180e-04	4.725174e-04	-2.576166e-03	-4.207896e-04	-5.298342e-03	-3.861941e-03	8.298411e-04	-1.788300e-03	4.061855e-03	9.670199e-04	9.917384e-04	-1.511980e-03	-4.645561e-03	1.744630e-03	-2.720059e-03	4.783151e-03	-2.546171e-03	-3.134922e-03	-4.928086e-03	-8.375536e-04	2.361321e-04	-2.378828e-04	-5.017050e-03	1.820088e-03	1.105770e-03	4.083530e-05	-1.873490e-03	5.393712e-04	-5.233662e-04	6.143143e-04	3.947865e-04	-4.095703e-03	1.209421e-03	-2.993346e-03	-2.864688e-03	-1.090092e-03	2.983225e-03	2.414611e-03	1.915880e-03	4.279292e-03	9.718158e-04	-6.844003e-03	-4.356918e-03	2.589581e-03	1.329332e-03	-2.056788e-03	1.166449e-03	-2.663402e-03	1.158136e-03	1.178900e-03	-2.235299e-03	2.121496e-03	-2.403689e-03	-1.580863e-03	1.628937e-03	2.517615e-03	-1.344698e-03	3.866280e-03	7.891270e-05	-2.102119e-03	2.473032e-03	2.499005e-03	2.451654e-03	1.128947e-03	1.134573e-03	-3.648927e-03	2.331111e-03	7.640571e-04	-2.746946e-03	-2.427163e-03	-1.686598e-03	1.238489e-03	1.730912e-03	1.044134e-03	1.007315e-03	9.848215e-04	9.579033e-04	9.516749e-04	-7.567481e-04	-6.354665e-04	9.461224e-04	9.481678e-04	9.579725e-04	1.104401e-03	1.163854e-03	1.151279e-03	1.115992e-03	2.316125e-03	6.463314e-04	6.793195e-04	5.600138e-04	5.884060e-04	1.021205e-03	1.056732e-03	-8.475768e-05	-2.293677e-05	8.595580e-04	1.440097e-03	1.574182e-03	1.167806e-03	1.150597e-03	-3.249733e-04	-2.395689e-04	-1.559593e-04	9.116634e-04	9.406696e-04	-1.344327e-03	-1.182410e-03	-1.027488e-03	-8.867316e-04	4.543966e-04	4.753735e-04	4.944418e-04	5.167296e-04	9.112770e-05	1.425514e-04	1.841895e-04	2.255258e-04	2.589813e-04	4.358574e-04	4.144649e-04	2.927242e-04	1.865510e-03	-3.459475e-03	-3.289471e-03	1.952938e-03	2.027959e-03	2.085951e-03	2.126332e-03	2.149410e-03	4.467490e-03	4.648945e-03	2.415261e-03	2.444573e-03	3.087709e-03	3.197149e-03	3.317802e-03	3.449098e-03	-2.404647e-03	-2.301038e-03	-2.199008e-03	-2.000978e-03	-1.898993e-03	-1.792235e-03	-1.685587e-03	-1.459540e-03	-1.337377e-03	-1.228339e-03	-9.656696e-04	-8.204175e-04	-6.870536e-04	-5.350277e-04	-3.930156e-04	-2.347866e-04	-8.371003e-05	1.483892e-03	1.344237e-03	3.993914e-04	5.609117e-04	7.252651e-04	8.919029e-04	2.504046e-03	2.572447e-03	2.648065e-03	2.727227e-03	2.804666e-03	2.890333e-03	4.820165e-03	4.978613e-03	1.075867e-03	1.047734e-03	1.027838e-03	7.081265e-04	7.530872e-04	7.813809e-04	5.113114e-03	5.186201e-03	5.130301e-03	3.592809e-03	3.748908e-03	3.922525e-03	4.100061e-03	2.169262e-03	2.208255e-03	2.270127e-03	2.373526e-03	-2.513317e-03	-2.741241e-03	-2.629649e-03	9.934162e-04	1.018393e-03	1.068370e-03	1.085728e-03	3.206917e-04	3.487514e-04	3.711558e-04	-2.059187e-03	-4.766249e-03	1.134054e-03	-7.467531e-03	-2.206331e-03	1.039821e-03	-4.635216e-04	-2.332205e-03	-3.510183e-03	-2.512325e-03	-1.585724e-03	-3.618109e-05	3.206544e-03	3.059672e-03	-1.486836e-04	-1.737468e-03	-2.074811e-03	-2.179834e-03	-2.072654e-03	-2.580190e-03	2.097834e-03	2.545602e-03	1.209556e-03	1.638340e-03	9.144883e-04	9.928244e-04	4.696649e-04	-4.297248e-03	-2.358308e-03	-2.665608e-03	1.365079e-03	1.618608e-03	2.801640e-04	-8.838814e-04	1.815043e-03	7.331062e-04	2.441122e-03	-4.096722e-03	-5.574193e-04	-7.742667e-03	-3.690689e-03	-2.243535e-03	4.327857e-03	4.849654e-03	8.990080e-04	-1.438993e-03	-2.541253e-03	3.830895e-03	-2.425105e-03	-2.909000e-03	-7.906549e-04	-2.957935e-03	-5.375508e-04	-1.908168e-03	3.459474e-04	3.149508e-04	-3.879778e-03	1.147334e-03	-2.785920e-03	1.504505e-03	1.023392e-03	-1.297050e-03	2.641087e-03	2.642188e-03	2.609820e-03	9.915526e-04	1.943818e-03	7.701097e-04	-2.437081e-03	-1.746276e-03	9.041254e-04	8.997800e-04	8.797397e-04	8.782968e-04	-6.610224e-04	-7.701391e-04	8.631515e-04	8.680127e-04	8.671999e-04	8.717546e-04	1.017256e-03	1.070551e-03	1.018638e-03	1.751687e-03	5.564911e-04	5.800029e-04	5.010222e-04	5.192813e-04	9.398240e-04	9.738664e-04	-1.534680e-04	-8.332055e-05	1.297654e-03	1.396851e-03	1.026559e-03	-3.747863e-04	-2.856629e-04	-2.186131e-04	8.047965e-04	-1.292212e-03	-1.146551e-03	-1.011283e-03	-8.872373e-04	3.586846e-04	3.881459e-04	4.009997e-04	4.314858e-04	4.483760e-04	2.517585e-05	6.153296e-05	1.142428e-04	1.421366e-04	1.870180e-04	-3.342281e-03	-3.186581e-03	-3.043311e-03	1.929894e-03	2.003547e-03	2.081599e-03	2.127525e-03	2.171262e-03	4.300147e-03	4.383124e-03	2.587591e-03	2.573494e-03	3.296904e-03	3.401798e-03	3.528286e-03	-2.244783e-03	-2.156066e-03	-2.053120e-03	-1.967467e-03	-1.858073e-03	-1.763534e-03	-1.649542e-03	-1.493593e-03	-1.312396e-03	-1.135818e-03	-6.099753e-04	-3.254006e-04	-2.753988e-05	5.944411e-04	9.041831e-04	2.613279e-03	2.669368e-03	2.751098e-03	2.836045e-03	2.913644e-03	3.006452e-03	3.099133e-03	4.441430e-03	4.485641e-03	9.544537e-04	9.458310e-04	9.255022e-04	6.097865e-04	6.645133e-04	4.499221e-03	4.435536e-03	4.242435e-03	3.655953e-03	3.788536e-03	3.931928e-03	4.065464e-03	4.183942e-03	2.191995e-03	2.224593e-03	2.253920e-03	2.321235e-03	-2.556075e-03	-2.453493e-03	8.755122e-04	9.398210e-04	2.099226e-04	2.494948e-04	2.666652e-04	3.005284e-04	4.987530e-03	-7.781734e-03	-2.127224e-03	-2.031984e-03	1.223621e-03	1.052391e-03	-3.642040e-03	-1.219011e-03	-2.803817e-03	2.013413e-03	1.171614e-03	-2.412760e-03	-1.486988e-03	-2.013783e-03	2.381175e-03	-4.671764e-03	1.573498e-03	-7.200068e-04	-1.889871e-03	1.000052e-03	6.032867e-04	-3.477502e-03	2.666037e-04	8.318461e-04	8.099055e-04	7.878657e-04	-4.919936e-04	-6.566626e-05	-2.363615e-03	4.274902e-04	-6.734632e-04	-5.808774e-04	3.375908e-03	-3.189227e-03	-2.248770e-03	-1.637984e-03	2.417546e-03	9.530097e-04	-7.352482e-03	-3.327866e-03	-2.143099e-03	-2.441341e-03	1.246966e-03	9.058246e-04	1.693328e-03	1.893228e-03	-3.826225e-03	-1.778867e-03	-4.742200e-03	-2.334197e-03	4.378338e-03	-1.361630e-03	-2.264263e-03	-2.204537e-03	1.243666e-03	-1.618663e-03	-2.692141e-03	-2.586478e-03	1.468423e-03	2.588246e-03	2.675007e-03	8.981957e-04	6.886899e-04	-9.234926e-05	-1.760573e-03	8.149671e-04	7.995226e-04	-7.753860e-04	7.933688e-04	7.892881e-04	9.124233e-04	1.339895e-03	4.795778e-04	8.510604e-04	8.788905e-04	-1.707543e-04	1.108212e-03	8.974769e-04	8.854824e-04	-3.661566e-04	-2.691684e-04	6.653230e-04	-1.231465e-03	-1.099235e-03	-9.853655e-04	-8.798986e-04	3.114720e-04	3.575832e-04	3.863243e-04	2.289497e-05	9.852752e-05	-3.053764e-03	-2.925338e-03	2.047456e-03	2.147885e-03	4.078675e-03	2.671705e-03	3.523617e-03	-1.132117e-03	-2.061318e-03	-1.869290e-03	-1.669046e-03	-1.475719e-03	-1.302909e-03	-9.228703e-04	-6.695598e-04	-4.015202e-04	-1.247397e-04	1.631578e-04	4.591786e-04	7.547624e-04	1.021019e-03	2.737580e-03	2.882971e-03	3.028508e-03	3.133922e-03	3.236468e-03	4.043023e-03	4.001711e-03	8.650328e-04	8.526040e-04	8.270173e-04	5.141052e-04	5.486455e-04	3.930819e-03	3.776868e-03	3.495677e-03	3.064459e-03	3.643961e-03	3.757424e-03	3.869979e-03	3.966190e-03	4.025797e-03	4.118466e-03	2.206566e-03	2.251473e-03	-2.500126e-03	-2.385766e-03	7.286610e-04	8.385969e-04	8.760505e-04	1.635889e-04	2.182751e-04	-3.917815e-03	3.835362e-03	3.819055e-03	-5.096451e-03	-1.002548e-03	-3.474748e-03	-3.247506e-03	1.680365e-03	-2.003882e-03	-1.729447e-03	2.314612e-03	1.359902e-03	5.619731e-04	-1.532346e-03	-2.348417e-03	-2.781840e-03	7.975640e-04	2.225359e-03	-4.359753e-03	7.085706e-04	-1.496081e-03	3.781891e-03	1.246360e-03	-1.932458e-03	3.378417e-04	7.398579e-04	7.232738e-04	5.629266e-04	8.380651e-04	8.678204e-04	-1.388732e-03	-1.279302e-03	-5.879603e-03	-3.140471e-03	-3.276102e-03	-2.578859e-03	2.572089e-03	1.082740e-03	7.876629e-04	-7.679853e-04	-6.674592e-03	-6.751586e-03	-2.187259e-03	8.100182e-04	-2.677191e-03	-2.368137e-04	9.064143e-04	-1.128079e-03	-1.831868e-03	5.084676e-04	-2.272597e-03	-6.830627e-04	-5.981346e-04	-3.015057e-03	-1.949806e-03	7.872607e-04	9.456286e-04	7.984987e-04	-2.335607e-03	2.643183e-03	-8.625636e-04	-2.113644e-03	-2.035886e-03	1.516397e-03	-1.616274e-03	-2.486323e-03	1.299135e-03	2.372470e-03	8.464749e-04	-8.261067e-05	-6.483014e-04	7.152206e-04	7.087785e-04	7.141878e-04	7.291851e-04	1.039145e-03	3.834885e-04	7.519733e-04	7.674250e-04	3.027258e-04	7.573132e-04	7.434610e-04	7.901738e-04	-5.005628e-04	-3.931766e-04	-3.054193e-04	-1.157592e-03	2.117029e-04	2.602361e-04	-2.080434e-04	-1.123210e-04	7.620105e-04	-2.895766e-03	1.727058e-03	1.907130e-03	3.449768e-03	-2.035699e-03	-1.845222e-03	-1.125266e-03	-1.648384e-03	-1.459683e-03	-1.287499e-03	-9.483384e-04	-7.343239e-04	-4.916956e-04	-2.364869e-04	2.789134e-05	3.027478e-04	5.816422e-04	2.686462e-03	2.732052e-03	2.821927e-03	2.970192e-03	3.145841e-03	3.312886e-03	3.624570e-03	3.519813e-03	7.760226e-04	7.276490e-04	4.294750e-04	4.649672e-04	3.396189e-03	3.195047e-03	2.874214e-03	2.444391e-03	1.899880e-03	3.556111e-03	3.646339e-03	3.729867e-03	3.782955e-03	3