# vtk DataFile Version 3.0
vtk output
ASCII
DATASET UNSTRUCTURED_GRID
POINTS 5233 float
9.997500e-01	-3.632909e-05	0.0	9.990000e-01	-1.452618e-04	0.0	9.977600e-01	-3.252008e-04	0.0	9.960200e-01	-5.774943e-04	0.0	9.937800e-01	-9.022942e-04	0.0	9.910500e-01	-1.298763e-03	0.0	9.878400e-01	-1.766726e-03	0.0	9.841300e-01	-2.311194e-03	0.0	9.799500e-01	-2.930640e-03	0.0	9.752800e-01	-3.631444e-03	0.0	9.701500e-01	-4.412625e-03	0.0	9.645400e-01	-5.280292e-03	0.0	9.584700e-01	-6.233365e-03	0.0	9.519400e-01	-7.272227e-03	0.0	9.449600e-01	-8.393908e-03	0.0	9.375400e-01	-9.593773e-03	0.0	9.296900e-01	-1.086609e-02	0.0	9.214000e-01	-1.220804e-02	0.0	9.127000e-01	-1.361074e-02	0.0	9.035800e-01	-1.507272e-02	0.0	8.940600e-01	-1.658877e-02	0.0	8.841500e-01	-1.815610e-02	0.0	8.738500e-01	-1.977361e-02	0.0	8.631800e-01	-2.143627e-02	0.0	8.521600e-01	-2.313752e-02	0.0	8.407700e-01	-2.487471e-02	0.0	8.290500e-01	-2.663345e-02	0.0	8.170100e-01	-2.840162e-02	0.0	8.046400e-01	-3.016792e-02	0.0	7.919700e-01	-3.191393e-02	0.0	7.790100e-01	-3.362378e-02	0.0	7.657800e-01	-3.528073e-02	0.0	7.522800e-01	-3.687177e-02	0.0	7.385200e-01	-3.838440e-02	0.0	7.245300e-01	-3.980643e-02	0.0	7.103200e-01	-4.113073e-02	0.0	6.958900e-01	-4.235375e-02	0.0	6.812700e-01	-4.347212e-02	0.0	6.664700e-01	-4.448693e-02	0.0	6.515000e-01	-4.540154e-02	0.0	6.363800e-01	-4.622067e-02	0.0	6.211300e-01	-4.695082e-02	0.0	6.057600e-01	-4.760016e-02	0.0	5.902800e-01	-4.817747e-02	0.0	5.747100e-01	-4.869148e-02	0.0	5.590600e-01	-4.915119e-02	0.0	5.433600e-01	-4.956464e-02	0.0	5.276100e-01	-4.993996e-02	0.0	5.118400e-01	-5.028359e-02	0.0	4.960500e-01	-5.060149e-02	0.0	4.802700e-01	-5.089775e-02	0.0	4.645100e-01	-5.117554e-02	0.0	4.487800e-01	-5.143670e-02	0.0	4.331100e-01	-5.168146e-02	0.0	4.175000e-01	-5.190932e-02	0.0	4.019700e-01	-5.211839e-02	0.0	3.865400e-01	-5.230586e-02	0.0	3.712300e-01	-5.246816e-02	0.0	3.560400e-01	-5.260130e-02	0.0	3.409900e-01	-5.270061e-02	0.0	3.261100e-01	-5.276113e-02	0.0	3.114000e-01	-5.277790e-02	0.0	2.968700e-01	-5.274582e-02	0.0	2.825500e-01	-5.265996e-02	0.0	2.684500e-01	-5.251559e-02	0.0	2.545700e-01	-5.230801e-02	0.0	2.409400e-01	-5.203324e-02	0.0	2.275700e-01	-5.168749e-02	0.0	2.144700e-01	-5.126729e-02	0.0	2.016600e-01	-5.076993e-02	0.0	1.891400e-01	-5.019238e-02	0.0	1.769300e-01	-4.953284e-02	0.0	1.650400e-01	-4.878952e-02	0.0	1.534900e-01	-4.796177e-02	0.0	1.422900e-01	-4.704883e-02	0.0	1.314400e-01	-4.604934e-02	0.0	1.209500e-01	-4.496296e-02	0.0	1.108500e-01	-4.379208e-02	0.0	1.011300e-01	-4.253503e-02	0.0	9.181000e-02	-4.119389e-02	0.0	8.290000e-02	-3.976997e-02	0.0	7.440000e-02	-3.826304e-02	0.0	6.633000e-02	-3.667657e-02	0.0	5.869000e-02	-3.501058e-02	0.0	5.149000e-02	-3.326708e-02	0.0	4.474000e-02	-3.144844e-02	0.0	3.844000e-02	-2.955433e-02	0.0	3.260000e-02	-2.758711e-02	0.0	2.723000e-02	-2.554977e-02	0.0	2.232000e-02	-2.343708e-02	0.0	1.790000e-02	-2.126113e-02	0.0	1.395000e-02	-1.901092e-02	0.0	1.049000e-02	-1.669561e-02	0.0	7.520000e-03	-1.431461e-02	0.0	5.040000e-03	-1.186637e-02	0.0	3.050000e-03	-9.347302e-03	0.0	1.560000e-03	-6.769269e-03	0.0	5.600000e-04	-4.108233e-03	0.0	6.000000e-05	-1.363608e-03	0.0	0.000000e+00	0.000000e+00	0.0	6.000000e-05	1.350236e-03	0.0	5.600000e-04	4.050826e-03	0.0	1.560000e-03	6.663226e-03	0.0	3.050000e-03	9.195473e-03	0.0	5.040000e-03	1.167583e-02	0.0	7.520000e-03	1.409653e-02	0.0	1.049000e-02	1.646478e-02	0.0	1.395000e-02	1.878581e-02	0.0	1.790000e-02	2.106403e-02	0.0	2.232000e-02	2.329392e-02	0.0	2.723000e-02	2.549065e-02	0.0	3.260000e-02	2.764558e-02	0.0	3.844000e-02	2.976800e-02	0.0	4.474000e-02	3.185849e-02	0.0	5.149000e-02	3.391797e-02	0.0	5.869000e-02	3.595015e-02	0.0	6.633000e-02	3.795531e-02	0.0	7.440000e-02	3.993367e-02	0.0	8.290000e-02	4.188739e-02	0.0	9.181000e-02	4.381361e-02	0.0	1.011300e-01	4.571359e-02	0.0	1.108500e-01	4.758588e-02	0.0	1.209500e-01	4.942683e-02	0.0	1.314400e-01	5.123782e-02	0.0	1.422900e-01	5.301272e-02	0.0	1.534900e-01	5.474871e-02	0.0	1.650400e-01	5.644398e-02	0.0	1.769300e-01	5.809472e-02	0.0	1.891400e-01	5.969553e-02	0.0	2.016600e-01	6.124223e-02	0.0	2.144700e-01	6.272926e-02	0.0	2.275700e-01	6.415328e-02	0.0	2.409400e-01	6.550849e-02	0.0	2.545700e-01	6.679020e-02	0.0	2.684500e-01	6.799357e-02	0.0	2.825500e-01	6.911218e-02	0.0	2.968700e-01	7.014214e-02	0.0	3.114000e-01	7.107860e-02	0.0	3.261100e-01	7.191555e-02	0.0	3.409900e-01	7.264840e-02	0.0	3.560400e-01	7.327286e-02	0.0	3.712300e-01	7.378330e-02	0.0	3.865400e-01	7.417483e-02	0.0	4.019700e-01	7.444303e-02	0.0	4.175000e-01	7.458295e-02	0.0	4.331100e-01	7.458992e-02	0.0	4.487800e-01	7.445955e-02	0.0	4.645100e-01	7.418745e-02	0.0	4.802700e-01	7.376991e-02	0.0	4.960500e-01	7.320341e-02	0.0	5.118400e-01	7.248482e-02	0.0	5.276100e-01	7.161270e-02	0.0	5.433600e-01	7.058503e-02	0.0	5.590600e-01	6.940265e-02	0.0	5.747100e-01	6.806549e-02	0.0	5.902800e-01	6.657731e-02	0.0	6.057600e-01	6.494175e-02	0.0	6.211300e-01	6.316504e-02	0.0	6.363800e-01	6.125402e-02	0.0	6.515000e-01	5.921698e-02	0.0	6.664700e-01	5.706516e-02	0.0	6.812700e-01	5.481151e-02	0.0	6.958900e-01	5.246892e-02	0.0	7.103200e-01	5.005129e-02	0.0	7.245300e-01	4.757686e-02	0.0	7.385200e-01	4.505941e-02	0.0	7.522800e-01	4.251466e-02	0.0	7.657800e-01	3.996213e-02	0.0	7.790100e-01	3.741749e-02	0.0	7.919700e-01	3.489399e-02	0.0	8.046400e-01	3.240819e-02	0.0	8.170100e-01	2.997405e-02	0.0	8.290500e-01	2.760884e-02	0.0	8.407700e-01	2.532127e-02	0.0	8.521600e-01	2.312328e-02	0.0	8.631800e-01	2.103157e-02	0.0	8.738500e-01	1.905016e-02	0.0	8.841500e-01	1.718895e-02	0.0	8.940600e-01	1.545535e-02	0.0	9.035800e-01	1.385019e-02	0.0	9.127000e-01	1.237271e-02	0.0	9.214000e-01	1.102010e-02	0.0	9.296900e-01	9.781662e-03	0.0	9.375400e-01	8.650401e-03	0.0	9.449600e-01	7.612208e-03	0.0	9.519400e-01	6.656126e-03	0.0	9.584700e-01	5.772587e-03	0.0	9.645400e-01	4.954359e-03	0.0	9.701500e-01	4.195689e-03	0.0	9.752800e-01	3.496291e-03	0.0	9.799500e-01	2.852720e-03	0.0	9.841300e-01	2.270023e-03	0.0	9.878400e-01	1.747228e-03	0.0	9.910500e-01	1.290667e-03	0.0	9.937800e-01	8.994899e-04	0.0	9.960200e-01	5.767420e-04	0.0	9.977600e-01	3.250644e-04	0.0	9.990000e-01	1.452495e-04	0.0	9.997500e-01	3.632890e-05	0.0	1.000000e+00	0.000000e+00	0.0	1.984229e+01	2.506660e+00	0.0	1.937166e+01	4.973800e+00	0.0	1.859553e+01	7.362490e+00	0.0	1.752613e+01	9.635070e+00	0.0	1.618034e+01	1.175571e+01	0.0	1.457937e+01	1.369094e+01	0.0	1.274848e+01	1.541027e+01	0.0	1.071654e+01	1.688656e+01	0.0	8.515590e+00	1.809654e+01	0.0	6.180340e+00	1.902113e+01	0.0	3.747630e+00	1.964575e+01	0.0	1.255810e+00	1.996053e+01	0.0	-1.255810e+00	1.996053e+01	0.0	-3.747630e+00	1.964574e+01	0.0	-6.180340e+00	1.902113e+01	0.0	-8.515590e+00	1.809654e+01	0.0	-1.071654e+01	1.688656e+01	0.0	-1.274848e+01	1.541026e+01	0.0	-1.457937e+01	1.369094e+01	0.0	-1.618034e+01	1.175570e+01	0.0	-1.752613e+01	9.635070e+00	0.0	-1.859553e+01	7.362490e+00	0.0	-1.937166e+01	4.973800e+00	0.0	-1.984229e+01	2.506660e+00	0.0	-2.000000e+01	0.000000e+00	0.0	-1.984229e+01	-2.506670e+00	0.0	-1.937166e+01	-4.973800e+00	0.0	-1.859553e+01	-7.362490e+00	0.0	-1.752613e+01	-9.635080e+00	0.0	-1.618034e+01	-1.175571e+01	0.0	-1.457937e+01	-1.369094e+01	0.0	-1.274848e+01	-1.541027e+01	0.0	-1.071653e+01	-1.688656e+01	0.0	-8.515580e+00	-1.809654e+01	0.0	-6.180340e+00	-1.902113e+01	0.0	-3.747620e+00	-1.964575e+01	0.0	-1.255810e+00	-1.996053e+01	0.0	1.255810e+00	-1.996053e+01	0.0	3.747630e+00	-1.964574e+01	0.0	6.180340e+00	-1.902113e+01	0.0	8.515590e+00	-1.809654e+01	0.0	1.071654e+01	-1.688656e+01	0.0	1.274848e+01	-1.541026e+01	0.0	1.457937e+01	-1.369094e+01	0.0	1.618034e+01	-1.175570e+01	0.0	1.752614e+01	-9.635070e+00	0.0	1.859553e+01	-7.362490e+00	0.0	1.937166e+01	-4.973790e+00	0.0	1.984229e+01	-2.506660e+00	0.0	2.000000e+01	0.000000e+00	0.0	6.093892e-02	-4.285144e-02	0.0	6.600410e-01	-5.844939e-02	0.0	4.255297e-01	8.863687e-02	0.0	6.904536e-01	6.677179e-02	0.0	3.791252e-01	-6.656260e-02	0.0	9.994589e-01	-7.258723e-04	0.0	9.985402e-01	-1.320872e-03	0.0	7.738251e-01	-4.634860e-02	0.0	6.897588e-01	-5.606349e-02	0.0	-1.367138e-03	6.233161e-03	0.0	7.467650e-01	-4.997311e-02	0.0	5.838090e-01	8.122916e-02	0.0	9.927651e-01	-3.598793e-03	0.0	9.898616e-01	-4.480982e-03	0.0	5.994275e-01	7.958836e-02	0.0	7.187102e-01	-5.322760e-02	0.0	-1.548094e-03	7.305687e-04	0.0	9.864673e-01	-5.441292e-03	0.0	9.825916e-01	-6.470515e-03	0.0	-1.358171e-03	-6.336027e-03	0.0	6.449375e-01	-5.947833e-02	0.0	8.244939e-01	-3.842106e-02	0.0	7.997632e-01	-4.246746e-02	0.0	3.482204e-01	8.660152e-02	0.0	8.478910e-01	-3.434813e-02	0.0	2.468390e-01	7.862192e-02	0.0	8.698983e-01	-3.032503e-02	0.0	1.001408e-02	2.079824e-02	0.0	8.904116e-01	-2.642047e-02	0.0	7.722818e-02	-4.682321e-02	0.0	9.093595e-01	-2.267674e-02	0.0	-1.865007e-03	-3.138557e-03	0.0	9.422484e-01	-1.580904e-02	0.0	9.266631e-01	-1.912583e-02	0.0	1.806769e-02	-2.637803e-02	0.0	4.256782e-01	-6.623083e-02	0.0	8.590773e-01	-3.232303e-02	0.0	9.560748e-01	-1.276843e-02	0.0	9.782290e-01	-7.589010e-03	0.0	9.680882e-01	-1.002215e-02	0.0	1.584746e-01	-5.900398e-02	0.0	9.000881e-01	-2.452666e-02	0.0	7.604299e-01	-4.820093e-02	0.0	9.971132e-01	-2.058079e-03	0.0	5.988429e-01	-6.197001e-02	0.0	4.413590e-01	-6.604490e-02	0.0	5.361230e-01	-6.418097e-02	0.0	4.728882e-01	-6.557080e-02	0.0	5.045102e-01	-6.495629e-02	0.0	4.886866e-01	-6.528085e-02	0.0	1.251652e-01	-5.514410e-02	0.0	2.799454e-02	-3.148915e-02	0.0	3.945492e-01	-6.649285e-02	0.0	4.640172e-02	-3.855324e-02	0.0	4.100682e-01	-6.638196e-02	0.0	3.187978e-01	-6.636792e-02	0.0	3.486567e-01	-6.657206e-02	0.0	3.367005e-02	-3.391128e-02	0.0	2.896281e-01	-6.592628e-02	0.0	9.346743e-01	-1.743395e-02	0.0	1.470184e-01	-5.780948e-02	0.0	1.948400e-01	-6.200962e-02	0.0	8.600599e-02	-4.867547e-02	0.0	1.048018e-01	-5.210645e-02	0.0	5.676108e-01	-6.321237e-02	0.0	1.702734e-01	-6.010386e-02	0.0	6.143295e-01	-6.122907e-02	0.0	8.803501e-01	-2.835590e-02	0.0	2.280418e-02	-2.897635e-02	0.0	9.951875e-01	-2.803889e-03	0.0	6.796488e-03	-1.820110e-02	0.0	1.798544e-02	2.626178e-02	0.0	9.182203e-01	-2.087471e-02	0.0	9.49388
[...]
POINT_DATA 5233

SCALARS Conservative_1 float 1
LOOKUP_TABLE default
4.279381e-01	2.163840e-01	1.778744e-01	1.486818e-01	1.295852e-01	1.149302e-01	1.032366e-01	9.373943e-02	8.593800e-02	7.946534e-02	7.403995e-02	6.946797e-02	6.556627e-02	6.222991e-02	5.934783e-02	5.684588e-02	5.465891e-02	5.261502e-02	5.069361e-02	4.894286e-02	4.752722e-02	4.633812e-02	4.536278e-02	4.457206e-02	4.388281e-02	4.336118e-02	4.288653e-02	4.254263e-02	4.220033e-02	4.190544e-02	4.162573e-02	4.126475e-02	4.093841e-02	4.045039e-02	3.996724e-02	3.932970e-02	3.868991e-02	3.790805e-02	3.714430e-02	3.626443e-02	3.542828e-02	3.450843e-02	3.365882e-02	3.275457e-02	3.193609e-02	3.109355e-02	3.033488e-02	2.958502e-02	2.890159e-02	2.825037e-02	2.765408e-02	2.709068e-02	2.655638e-02	2.608168e-02	2.561168e-02	2.520747e-02	2.479840e-02	2.444136e-02	2.407166e-02	2.374453e-02	2.339657e-02	2.308327e-02	2.273862e-02	2.242186e-02	2.206675e-02	2.173041e-02	2.135021e-02	2.097959e-02	2.056561e-02	2.014235e-02	1.968740e-02	1.919951e-02	1.869220e-02	1.813730e-02	1.755571e-02	1.693697e-02	1.626687e-02	1.556287e-02	1.480506e-02	1.400335e-02	1.314280e-02	1.222868e-02	1.125235e-02	1.021123e-02	9.098680e-03	7.914097e-03	6.648822e-03	5.300767e-03	3.875771e-03	2.358541e-03	8.074029e-04	-6.221255e-04	-2.506495e-03	-4.864631e-03	-1.860139e-03	6.538493e-03	7.982029e-03	2.318345e-03	-4.964801e-03	-1.177251e-02	-1.804964e-02	-3.179923e-02	-5.204784e-02	-6.858430e-02	-8.387101e-02	-1.071682e-01	-1.341685e-01	-1.524905e-01	-1.602095e-01	-1.629557e-01	-1.643315e-01	-1.646989e-01	-1.637439e-01	-1.612809e-01	-1.578392e-01	-1.539813e-01	-1.501712e-01	-1.466401e-01	-1.436458e-01	-1.411498e-01	-1.391112e-01	-1.376156e-01	-1.367090e-01	-1.363882e-01	-1.362688e-01	-1.360363e-01	-1.355791e-01	-1.348929e-01	-1.339997e-01	-1.329466e-01	-1.316297e-01	-1.303096e-01	-1.290979e-01	-1.281379e-01	-1.272256e-01	-1.256812e-01	-1.230767e-01	-1.188003e-01	-1.121213e-01	-1.016148e-01	-8.946914e-02	-8.151356e-02	-7.992605e-02	-8.190147e-02	-8.454492e-02	-8.646439e-02	-8.771433e-02	-8.850519e-02	-8.883592e-02	-8.878451e-02	-8.828004e-02	-8.754636e-02	-8.646302e-02	-8.519956e-02	-8.380272e-02	-8.218214e-02	-8.058727e-02	-7.880085e-02	-7.700150e-02	-7.518306e-02	-7.329827e-02	-7.151190e-02	-6.966036e-02	-6.796875e-02	-6.624173e-02	-6.470678e-02	-6.316527e-02	-6.183628e-02	-6.052198e-02	-5.943225e-02	-5.837264e-02	-5.755223e-02	-5.675317e-02	-5.621513e-02	-5.578630e-02	-5.555294e-02	-5.555089e-02	-5.576596e-02	-5.632753e-02	-5.716040e-02	-5.852829e-02	-6.021243e-02	-6.217863e-02	-6.435187e-02	-6.694330e-02	-6.988245e-02	-7.326661e-02	-7.705265e-02	-8.134488e-02	-8.620050e-02	-9.178915e-02	-9.827502e-02	-1.059429e-01	-1.150981e-01	-1.262192e-01	-1.399426e-01	-1.608439e-01	-1.804254e-01	-3.450703e-01	3.170688e-02	-1.183564e-04	-1.296300e-04	-1.401285e-04	-1.489947e-04	-1.597617e-04	-1.677262e-04	-1.764386e-04	-1.788838e-04	-1.719051e-04	-1.692811e-04	-1.742019e-04	-1.748806e-04	-1.762982e-04	-1.672680e-04	-1.477353e-04	-1.386477e-04	-1.194398e-04	-1.057522e-04	-9.094195e-05	-7.132427e-05	-4.389631e-05	-2.796489e-05	3.243001e-05	1.813018e-04	1.369094e-04	1.615654e-04	2.224146e-04	2.275934e-04	1.395894e-04	1.731801e-04	2.014539e-04	2.157933e-04	2.271941e-04	2.286223e-04	2.272926e-04	2.153316e-04	1.800274e-04	1.490532e-04	9.060817e-05	6.676622e-05	5.503019e-05	3.395804e-05	1.254509e-05	-9.742180e-06	-3.066791e-05	-4.919455e-05	-6.518569e-05	-8.062379e-05	-9.419357e-05	-1.069489e-04	9.857420e-03	3.251164e-02	-7.303989e-02	-6.129057e-02	2.180090e-02	3.349536e-01	2.403521e-01	3.768953e-02	3.402672e-02	-3.234959e-02	3.661405e-02	-7.018841e-02	1.278197e-01	1.118914e-01	-6.896450e-02	3.540795e-02	-1.374020e-02	9.984151e-02	9.042342e-02	3.898014e-03	3.174359e-02	3.983684e-02	3.871343e-02	-7.346424e-02	4.122487e-02	-1.058697e-01	4.304736e-02	-1.139297e-01	4.554468e-02	1.158800e-02	4.903248e-02	-2.005527e-03	5.746716e-02	5.296065e-02	1.553397e-03	2.287872e-02	4.206000e-02	6.338107e-02	8.283441e-02	7.144340e-02	1.648957e-02	4.716424e-02	3.719218e-02	1.827618e-01	2.936472e-02	2.330087e-02	2.651693e-02	2.422420e-02	2.530097e-02	2.475026e-02	1.496577e-02	4.292653e-03	2.213187e-02	7.856405e-03	2.250420e-02	2.058214e-02	2.116936e-02	5.558085e-03	2.000728e-02	5.509365e-02	1.602211e-02	1.774287e-02	1.236178e-02	1.375573e-02	2.787692e-02	1.693909e-02	3.016106e-02	4.418667e-02	2.960300e-03	1.499327e-01	-3.119876e-03	-1.344253e-01	5.099020e-02	6.020197e-02	7.661097e-02	-4.604487e-02	4.046923e-02	1.910501e-02	2.719016e-02	3.604976e-02	3.820848e-02	1.438388e-02	1.845828e-02	2.862367e-02	3.330186e-02	8.890553e-03	-3.570398e-03	2.037624e-04	2.146898e-02	1.735173e-02	4.546558e-01	1.879650e-02	1.308605e-02	2.028444e-02	1.942131e-02	2.374261e-02	3.475769e-02	-2.033970e-02	6.461569e-03	-7.328373e-02	-8.512996e-03	-1.405830e-01	-1.362012e-01	-1.411357e-01	-1.178521e-01	-7.183861e-02	-1.694241e-01	-7.401543e-02	-7.490934e-02	-8.311653e-02	-7.436582e-02	-5.447687e-02	-7.486111e-02	-7.397793e-02	-6.967130e-02	-6.050424e-02	-5.708533e-02	-1.262690e-01	-8.855407e-02	-7.077195e-02	-6.488711e-02	-1.211759e-01	-1.328771e-01	-1.005985e-01	-1.044338e-01	-1.144194e-01	-9.042148e-02	-7.460545e-02	-7.058011e-02	-1.158330e-01	-1.168936e-01	-6.644011e-02	-1.121768e-01	-1.090843e-01	-6.383281e-02	-7.128279e-02	-5.688315e-02	-5.894396e-02	-5.389731e-02	-5.518840e-02	-5.278371e-02	-5.309382e-02	-5.563002e-02	-5.314721e-02	-6.764152e-02	-5.873723e-02	-7.843720e-02	-5.287820e-02	-5.367607e-02	-5.340235e-02	-5.284002e-02	-5.596105e-02	-5.446400e-02	-6.005922e-02	-5.784588e-02	-6.512013e-02	-6.252041e-02	-7.235189e-02	-6.773529e-02	-1.107403e-01	-1.074109e-01	-1.152346e-01	-1.134115e-01	-1.391426e-01	-1.163064e-01	-1.278492e-01	-1.416349e-01	1.811545e-02	-6.923638e-02	6.708275e-02	3.923951e-02	2.086315e-02	2.589529e-02	-5.633875e-02	-1.381711e-01	-9.126575e-02	-1.234867e-01	-1.294807e-01	-1.028721e-01	-1.192811e-01	-9.502064e-02	-1.028472e-01	-9.682666e-02	-1.127133e-01	-1.255860e-01	-8.171920e-02	-7.011418e-02	-6.256206e-02	-3.991251e-01	-2.153631e-01	-2.884995e-01	3.093168e-02	6.745728e-03	-1.433016e-01	-7.457870e-02	1.741345e-03	-1.097195e-03	1.075293e-02	1.551353e-02	1.970827e-02	-1.096308e-01	-2.983943e-02	-2.047687e-02	1.731422e-02	3.033087e-02	4.787921e-02	-1.400782e-03	-5.854532e-02	2.964674e-02	3.442211e-02	1.061581e-01	1.808061e-02	3.920005e-02	3.735513e-02	1.146213e-02	3.775450e-03	1.601787e-02	1.037457e-03	6.381531e-02	1.438248e-02	3.108355e-02	2.818659e-02	2.055261e-02	1.083473e-02	1.918069e-02	4.425736e-02	3.509407e-02	-7.831385e-02	-1.126861e-01	-5.378443e-02	-4.927508e-02	-9.991563e-02	-5.297144e-02	-9.442331e-02	-5.075801e-02	-1.069109e-01	-5.716686e-02	-6.120549e-02	-6.687951e-02	-5.161938e-02	-1.190063e-01	-7.018060e-02	-8.986615e-02	-8.527786e-02	-6.111250e-02	-8.703753e-02	-1.017803e-01	2.887812e-02	1.571698e-02	-9.550100e-02	-9.617183e-02	-1.179965e-01	-7.842192e-02	-1.349328e-01	-5.264203e-02	1.473323e-02	-1.297981e-01	-1.826609e-01	-1.572943e-01	-5.952152e-02	-3.921466e-02	-3.004637e-03	-6.086801e-03	-1.047520e-02	2.287900e-03	1.505507e-01	9.402917e-03	1.960771e-01	1.393879e-01	-6.089584e-02	2.344715e-02	9.494240e-02	4.145833e-02	-5.785139e-02	1.204420e-01	-7.228278e-04	2.016524e-02	-6.058641e-02	3.820212e-02	-7.849574e-02	4.025653e-02	4.278233e-02	1.014676e-02	4.596034e-02	4.997832e-02	5.717492e-02	4.660063e-03	6.023674e-02	6.799544e-02	8.611092e-02	1.354376e-02	3.306308e-02	3.377640e-02	1.655254e-01	2.095131e-02	2.137738e-02	2.186140e-02	3.504095e-03	1.947630e-02	1.983180e-02	1.832302e-02	6.769760e-03	5.213895e-02	5.449678e-02	1.397693e-02	1.204901e-02	2.407274e-02	2.600427e-02	7.294658e-02	7.886701e-02	3.173101e-02	3.244805e-02	1.258096e-02	1.309344e-02	2.466725e-02	2.536011e-02	7.714578e-03	8.594326e-03	-5.082899e-05	1.860686e-02	1.887259e-02	1.509280e-02	1.541336e-02	1.628160e-02	1.656093e-02	1.757655e-02	1.781120e-02	1.680997e-02	-1.415898e-02	-1.215265e-03	-1.196094e-01	-9.740460e-02	-6.069034e-02	-6.149281e-02	-6.178615e-02	-6.185035e-02	-8.361006e-02	-7.400739e-02	-5.735380e-02	-6.168444e-02	-6.127774e-02	-6.011000e-02	-5.552665e-02	-6.396964e-02	-1.127287e-01	-1.155641e-01	-8.348971e-02	-8.137348e-02	-9.533208e-02	-9.717027e-02	-9.840490e-02	-4.908286e-02	-5.044751e-02	-5.104171e-02	-4.936108e-02	-4.909311e-02	-5.395069e-02	-5.013095e-02	-4.962009e-02	-4.894424e-02	-4.901744e-02	-4.960685e-02	-5.003925e-02	-5.159168e-02	-5.230656e-02	-5.453047e-02	-5.538747e-02	-5.938573e-02	-6.010188e-02	-5.619676e-02	-5.700374e-02	-8.876844e-02	-9.037240e-02	-9.193072e-02	-9.327203e-02	-1.063294e-01	-1.199588e-01	-1.189377e-01	3.581858e-02	3.652918e-02	2.235511e-02	2.290648e-02	-4.701658e-02	-1.166242e-01	-1.039664e-01	-1.066047e-01	-6.790567e-02	-7.405959e-02	-5.902039e-02	-5.727421e-02	-6.149116e-02	-5.926768e-02	2.674415e-02	2.742100e-02	5.751853e-03	3.530753e-03	1.708104e-02	-2.431582e-05	1.677739e-02	1.501540e-02	3.165183e-02	2.022889e-02	4.627864e-02	-1.032687e-01	-9.483085e-02	-6.837603e-02	-4.084170e-02	-1.124704e-01	-2.338219e-01	-2.125627e-01	1.508494e-01	5.505202e-03	2.960567e-03	-1.247539e-02	1.045362e-02	4.844997e-02	1.037080e-01	-4.921764e-02	2.550395e-01	-1.545311e-03	2.732012e-02	9.393450e-04	2.801655e-02	1.886761e-03	3.833161e-02	-1.205647e-04	1.572656e-02	3.715792e-02	2.657615e-02	1.146554e-01	8.484229e-04	-8.176901e-02	-5.044543e-02	-6.210306e-02	-4.649771e-02	-1.250424e-01	-5.062261e-02	-5.895232e-02	-4.266542e-02	-7.566806e-02	-9.332961e-02	-2.329789e-01	2.635836e-03	-2.646324e-02	-8.717252e-02	-1.917744e-02	6.316718e-02	9.977728e-03	-8.883735e-03	1.267215e-02	1.808579e-02	4.000728e-03	-6.593871e-02	-4.560034e-02	-4.463363e-02	-4.608413e-02	-8.778487e-02	-6.505009e-02	-4.913929e-02	-4.812540e-02	-4.337733e-02	-5.370368e-02	-6.727620e-02	-8.319189e-02	2.515569e-02	2.588051e-02	1.367986e-02	-7.835791e-02	-7.680008e-02	-7.659451e-02	-1.434279e-01	-5.190905e-02	-3.348087e-02	-1.869169e-03	-4.744894e-03	4.981331e-03	2.284856e-01	2.558671e-01	6.749688e-02	9.379562e-02	-4.865843e-02	1.773418e-02	-5.107295e-02	3.510143e-02	3.605644e-02	3.960340e-02	4.100996e-02	8.850795e-03	9.439988e-03	4.252949e-02	4.432694e-02	5.617616e-02	5.941916e-02	8.552306e-02	3.013171e-02	3.096843e-02	1.295654e-01	1.849633e-02	1.885671e-02	1.705034e-02	1.740036e-02	5.881226e-03	5.079923e-02	5.331098e-02	1.203665e-02	1.235948e-02	2.077729e-02	2.130702e-02	7.253030e-02	7.851140e-02	2.878534e-02	2.950695e-02	1.089826e-02	1.131449e-02	1.170701e-02	2.190995e-02	2.249906e-02	6.723903e-03	7.500764e-03	8.220830e-03	1.594527e-02	1.623125e-02	1.646925e-02	1.293488e-02	1.319766e-02	1.346341e-02	1.393565e-02	1.412961e-02	1.526286e-02	1.546578e-02	1.437832e-02	-9.824518e-02	-5.096374e-02	-5.122981e-02	-7.220853e-02	-5.131360e-02	-5.114812e-02	-5.105093e-02	-5.112170e-02	-5.334361e-02	-9.555743e-02	-9.723197e-02	-6.280704e-02	-6.537360e-02	-7.814435e-02	-7.967640e-02	-8.128222e-02	-4.491659e-02	-5.173662e-02	-5.027172e-02	-4.733084e-02	-4.658302e-02	-4.603483e-02	-4.509598e-02	-4.498037e-02	-4.480007e-02	-4.465419e-02	-4.465214e-02	-4.478386e-02	-4.516762e-02	-4.540874e-02	-4.574894e-02	-4.690207e-02	-4.976715e-02	-5.009009e-02	-4.736565e-02	-4.778492e-02	-4.830902e-02	-6.872472e-02	-7.009984e-02	-7.157472e-02	-7.307594e-02	-7.448545e-02	-9.842184e-02	-9.771840e-02	3.249516e-02	3.332902e-02	3.414904e-02	1.926298e-02	1.977837e-02	-9.603344e-02	-9.282693e-02	-8.535419e-02	-8.790196e-02	-9.066030e-02	-4.778125e-02	-5.060930e-02	-4.866023e-02	-4.558256e-02	-5.956028e-02	-5.724760e-02	-5.523899e-02	2.315351e-02	2.378924e-02	2.448294e-02	1.457981e-02	1.482356e-02	-4.590152e-04	9.416882e-03	-1.095082e-01	-7.777027e-02	1.837566e-02	-1.297370e-02	1.583996e-01	4.457763e-02	4.682086e-02	5.256229e-03	-9.496478e-02	-4.324731e-02	8.788235e-04	-6.391481e-02	-2.076714e-05	-6.260354e-02	-1.010623e-01	-2.436197e-02	-4.159015e-02	-3.003895e-02	-9.193742e-02	1.011465e-01	2.984708e-02	1.107336e-02	3.607338e-03	1.476141e-02	9.083225e-03	1.569864e-02	1.302762e-02	-8.283861e-02	-4.271023e-02	-5.979363e-02	-5.732517e-02	-4.097524e-02	-5.982855e-02	-4.321316e-02	8.821193e-02	-7.738640e-02	3.546293e-02	-1.492539e-01	-8.858128e-02	1.127287e-01	6.538452e-02	2.723736e-03	2.454663e-02	-9.017712e-04	2.504211e-02	2.604318e-02	1.806401e-03	9.574747e-02	9.819330e-04	-4.249406e-02	-4.362957e-02	-3.034815e-02	-1.861923e-02	-5.490311e-02	-4.097135e-02	-4.581779e-02	-3.224033e-02	-3.264656e-02	-3.768168e-02	2.314898e-02	2.361440e-02	-7.322280e-02	-4.506431e-02	-3.648303e-02	-1.705299e-04	-3.497420e-03	4.479778e-03	6.133963e-02	8.134805e-02	-4.222792e-02	3.332602e-02	3.428319e-02	3.663411e-02	3.795104e-02	8.253034e-03	8.687989e-03	3.930554e-02	4.088187e-02	4.271581e-02	5.456754e-02	5.774510e-02	2.823101e-02	2.882280e-02	1.030471e-01	1.611962e-02	1.654588e-02	1.499442e-02	1.539069e-02	4.920793e-02	5.171342e-02	1.059308e-02	1.076534e-02	1.868148e-02	7.001839e-02	7.535133e-02	2.662855e-02	2.728318e-02	9.755160e-03	1.001705e-02	1.037105e-02	1.941240e-02	1.976900e-02	5.967246e-03	6.628934e-03	7.251979e-03	7.791650e-03	1.366694e-02	1.393099e-02	1.416702e-02	1.446182e-02	1.121376e-02	1.146537e-02	1.162663e-02	1.185215e-02	1.200978e-02	1.345611e-02	1.321633e-02	1.222762e-02	-4.358468e-02	-6.924510e-02	-6.573135e-02	-4.372749e-02	-4.363434e-02	-4.355717e-02	-4.356676e-02	-4.367426e-02	-7.821847e-02	-7.847419e-02	-4.742081e-02	-5.053770e-02	-6.126463e-02	-6.309550e-02	-6.473048e-02	-6.665271e-02	-4.942706e-02	-4.803407e-02	-4.679853e-02	-4.488747e-02	-4.412075e-02	-4.337838e-02	-4.291231e-02	-4.180868e-02	-4.165738e-02	-4.153154e-02	-4.113771e-02	-4.070301e-02	-4.099941e-02	-4.062924e-02	-4.104500e-02	-4.072469e-02	-4.124939e-02	-4.294533e-02	-4.343078e-02	-4.133485e-02	-4.203733e-02	-4.180372e-02	-4.252706e-02	-5.212037e-02	-5.339855e-02	-5.437339e-02	-5.576864e-02	-5.712413e-02	-5.847675e-02	-7.842021e-02	-7.821575e-02	3.055030e-02	3.136268e-02	3.233962e-02	1.681212e-02	1.745455e-02	1.771907e-02	-7.745397e-02	-7.524005e-02	-7.080523e-02	-6.886874e-02	-7.142239e-02	-7.390793e-02	-7.593868e-02	-4.365915e-02	-4.263726e-02	-4.037398e-02	-3.649975e-02	-5.110343e-02	-5.502346e-02	-5.305994e-02	2.056281e-02	2.096423e-02	2.181219e-02	2.225137e-02	1.240384e-02	1.262949e-02	1.280156e-02	2.705290e-03	-9.585543e-02	5.864977e-02	-1.605521e-01	1.974926e-03	2.385495e-02	8.490899e-03	1.202256e-03	-6.899752e-02	2.339507e-04	4.863314e-03	9.664713e-03	-4.805050e-02	-4.532523e-02	-2.715434e-02	-1.331597e-02	-8.746144e-03	-7.278818e-03	-8.903039e-03	-8.346744e-07	9.744615e-02	-2.523897e-02	6.221704e-02	8.048147e-02	4.529422e-02	2.784880e-02	1.309331e-02	-8.508584e-02	-4.788348e-02	-5.284823e-02	-3.830621e-02	-3.830683e-02	-3.736352e-02	-3.800350e-02	-3.802617e-02	1.644120e-02	-3.048849e-02	-8.101087e-02	8.233223e-03	-1.711565e-01	-7.263921e-02	-6.523970e-03	1.727809e-01	1.844098e-01	4.346608e-02	5.436655e-03	-1.344265e-03	-5.171156e-02	4.483848e-04	-5.726235e-02	-2.256141e-02	-3.388311e-02	3.446485e-02	3.456448e-03	1.176217e-02	1.141176e-02	-7.647621e-02	-3.758722e-02	-5.499994e-02	7.506882e-02	2.234861e-02	-1.801074e-02	-2.183948e-02	-2.238439e-02	-2.722592e-02	2.097475e-02	-3.855725e-02	-3.238087e-02	-3.406996e-03	4.175414e-03	3.200671e-02	3.319408e-02	3.418792e-02	3.557614e-02	7.948362e-03	7.658612e-03	3.668407e-02	3.823090e-02	3.954944e-02	4.126178e-02	5.249789e-02	5.543043e-02	2.616070e-02	8.525501e-02	1.423936e-02	1.451045e-02	1.353897e-02	1.370519e-02	4.746773e-02	4.983870e-02	9.275114e-03	9.588562e-03	6.617064e-02	7.048385e-02	2.480960e-02	8.649553e-03	9.011401e-03	9.225833e-03	1.741103e-02	5.959971e-03	6.477671e-03	6.920724e-03	7.335329e-03	1.182552e-02	1.219687e-02	1.227880e-02	1.269988e-02	1.288236e-02	9.953665e-03	9.991010e-03	1.028654e-02	1.031617e-02	1.061741e-02	-6.564235e-02	-6.257765e-02	-5.980965e-02	-3.876382e-02	-3.825448e-02	-3.866704e-02	-3.817086e-02	-3.867987e-02	-6.175051e-02	-6.116927e-02	-3.110007e-02	-3.717699e-02	-5.092381e-02	-5.175745e-02	-5.354109e-02	-4.621777e-02	-4.520958e-02	-4.401598e-02	-4.330410e-02	-4.225163e-02	-4.165074e-02	-4.080853e-02	-4.007958e-02	-3.910543e-02	-3.871830e-02	-3.759710e-02	-3.737021e-02	-3.730347e-02	-3.754902e-02	-3.773964e-02	-3.892958e-02	-4.194784e-02	-4.190530e-02	-4.382266e-02	-4.397959e-02	-4.501547e-02	-4.649481e-02	-6.088083e-02	-6.118721e-02	2.902558e-02	3.014778e-02	3.099423e-02	1.484290e-02	1.555754e-02	-6.137735e-02	-6.009180e-02	-5.676214e-02	-5.571181e-02	-5.806988e-02	-6.017414e-02	-6.142163e-02	-6.177325e-02	-3.825409e-02	-3.844082e-02	-3.679233e-02	-3.425277e-02	-5.094765e-02	-4.934614e-02	1.850367e-02	1.969361e-02	1.066378e-02	1.099274e-02	1.103219e-02	1.135951e-02	1.866764e-01	-1.738159e-01	2.241554e-03	-9.612728e-03	8.371862e-02	5.791680e-02	-6.962144e-02	-1.742270e-02	-5.426681e-02	9.579352e-02	6.417192e-02	-4.109200e-03	5.136149e-03	2.895318e-03	-2.754914e-02	-8.262730e-02	-3.275605e-02	-2.092843e-02	3.494194e-03	5.504321e-02	1.413515e-02	-6.649315e-02	1.030666e-02	4.350331e-02	4.103865e-02	1.706850e-02	7.616514e-03	8.678664e-03	3.990274e-04	1.198573e-02	7.294807e-03	7.500801e-03	-4.230007e-02	-6.119192e-02	-4.546943e-02	-1.388569e-02	-3.729648e-02	5.233132e-02	-1.590335e-01	-6.372243e-02	-7.799220e-03	-2.041449e-03	6.786620e-02	2.224642e-02	-3.378265e-02	-3.440247e-02	-7.326007e-02	-1.486458e-03	-9.439756e-02	-5.434489e-03	1.722596e-01	5.520749e-03	1.409338e-03	1.703724e-03	-3.379058e-02	4.635740e-03	-5.234380e-02	-5.061826e-02	-3.380982e-02	-1.916269e-02	-1.821906e-02	2.095107e-02	-2.847525e-02	-2.453449e-02	4.077135e-03	3.144207e-02	3.380459e-02	7.062503e-03	3.637714e-02	3.835816e-02	4.981699e-02	7.211695e-02	1.263564e-02	4.540010e-02	4.751340e-02	8.384819e-03	6.089962e-02	2.337205e-02	2.486318e-02	7.975319e-03	8.160244e-03	1.499622e-02	5.911658e-03	6.230031e-03	6.603594e-03	6.874807e-03	1.071110e-02	1.121663e-02	1.149124e-02	8.949278e-03	9.245154e-03	-5.872462e-02	-5.641412e-02	-3.446734e-02	-3.454210e-02	-4.734399e-02	-2.546684e-02	-4.429052e-02	-3.621182e-02	-4.308370e-02	-4.113366e-02	-3.944580e-02	-3.797439e-02	-3.696007e-02	-3.539481e-02	-3.466067e-02	-3.415017e-02	-3.381746e-02	-3.361931e-02	-3.354979e-02	-3.354108e-02	-3.354950e-02	-3.197019e-02	-3.490971e-02	-3.550383e-02	-3.749387e-02	-3.852510e-02	-4.672869e-02	-4.749253e-02	2.645674e-02	2.829760e-02	2.964194e-02	1.302333e-02	1.341372e-02	-4.832677e-02	-4.773225e-02	-4.522677e-02	-4.160996e-02	-4.634171e-02	-4.821410e-02	-4.963902e-02	-4.997339e-02	-4.915429e-02	-4.979797e-02	-3.415961e-02	-3.215327e-02	-4.928179e-02	-4.740201e-02	1.598340e-02	1.825157e-02	1.954441e-02	9.584310e-03	9.932009e-03	-7.470631e-02	1.539348e-01	1.522603e-01	-1.030631e-01	6.117301e-03	-6.457185e-02	-4.340550e-02	8.509909e-02	2.703770e-03	4.141928e-03	1.056414e-01	7.382166e-02	-2.483649e-02	-1.407179e-02	-5.101949e-03	-5.239659e-02	2.112902e-02	-2.749611e-02	-8.488717e-02	3.516542e-02	4.959237e-03	-3.838379e-02	-2.772541e-02	3.140816e-03	1.042809e-02	4.138686e-02	1.632480e-02	1.335670e-02	5.058508e-02	5.281971e-02	5.281737e-03	5.566372e-03	-1.178009e-01	-5.835815e-02	-6.066634e-02	-4.920413e-02	-1.395050e-02	-3.085617e-02	1.876205e-02	6.534171e-03	-1.437390e-01	-1.447444e-01	-7.563858e-03	4.843132e-02	-5.073982e-02	4.141570e-02	5.527210e-02	-1.664247e-02	3.695373e-03	1.258063e-02	-1.858780e-03	6.644184e-03	6.735961e-03	-5.620186e-02	-1.061833e-02	4.647547e-02	5.790164e-02	1.999819e-02	-5.496808e-03	1.226978e-01	6.346834e-03	1.667841e-03	2.636733e-03	-3.087139e-02	4.560813e-03	-4.786121e-02	-3.090627e-02	-2.150994e-02	-3.089965e-02	-2.198817e-02	-1.928946e-02	3.035486e-02	3.282433e-02	3.736079e-02	3.967876e-02	6.230956e-02	1.097170e-02	4.296608e-02	4.464301e-02	1.005179e-02	2.532914e-02	2.686369e-02	2.235346e-02	6.800913e-03	7.027721e-03	7.113202e-03	5.804994e-03	9.124471e-03	9.585642e-03	7.265989e-03	7.479789e-03	1.749647e-02	-5.424877e-02	-3.088405e-02	-3.090938e-02	-3.742952e-02	-4.158200e-02	-3.946418e-02	-3.419235e-02	-3.759784e-02	-3.611122e-02	-3.501578e-02	-3.347361e-02	-3.277104e-02	-3.216227e-02	-3.171104e-02	-3.138927e-02	-3.116015e-02	-3.101548e-02	-1.278091e-02	-1.860825e-02	-2.450732e-02	-2.78295