# vtk DataFile Version 3.0
vtk output
ASCII
DATASET UNSTRUCTURED_GRID
POINTS 5233 float
9.997500e-01	-3.632909e-05	0.0	9.990000e-01	-1.452618e-04	0.0	9.977600e-01	-3.252008e-04	0.0	9.960200e-01	-5.774943e-04	0.0	9.937800e-01	-9.022942e-04	0.0	9.910500e-01	-1.298763e-03	0.0	9.878400e-01	-1.766726e-03	0.0	9.841300e-01	-2.311194e-03	0.0	9.799500e-01	-2.930640e-03	0.0	9.752800e-01	-3.631444e-03	0.0	9.701500e-01	-4.412625e-03	0.0	9.645400e-01	-5.280292e-03	0.0	9.584700e-01	-6.233365e-03	0.0	9.519400e-01	-7.272227e-03	0.0	9.449600e-01	-8.393908e-03	0.0	9.375400e-01	-9.593773e-03	0.0	9.296900e-01	-1.086609e-02	0.0	9.214000e-01	-1.220804e-02	0.0	9.127000e-01	-1.361074e-02	0.0	9.035800e-01	-1.507272e-02	0.0	8.940600e-01	-1.658877e-02	0.0	8.841500e-01	-1.815610e-02	0.0	8.738500e-01	-1.977361e-02	0.0	8.631800e-01	-2.143627e-02	0.0	8.521600e-01	-2.313752e-02	0.0	8.407700e-01	-2.487471e-02	0.0	8.290500e-01	-2.663345e-02	0.0	8.170100e-01	-2.840162e-02	0.0	8.046400e-01	-3.016792e-02	0.0	7.919700e-01	-3.191393e-02	0.0	7.790100e-01	-3.362378e-02	0.0	7.657800e-01	-3.528073e-02	0.0	7.522800e-01	-3.687177e-02	0.0	7.385200e-01	-3.838440e-02	0.0	7.245300e-01	-3.980643e-02	0.0	7.103200e-01	-4.113073e-02	0.0	6.958900e-01	-4.235375e-02	0.0	6.812700e-01	-4.347212e-02	0.0	6.664700e-01	-4.448693e-02	0.0	6.515000e-01	-4.540154e-02	0.0	6.363800e-01	-4.622067e-02	0.0	6.211300e-01	-4.695082e-02	0.0	6.057600e-01	-4.760016e-02	0.0	5.902800e-01	-4.817747e-02	0.0	5.747100e-01	-4.869148e-02	0.0	5.590600e-01	-4.915119e-02	0.0	5.433600e-01	-4.956464e-02	0.0	5.276100e-01	-4.993996e-02	0.0	5.118400e-01	-5.028359e-02	0.0	4.960500e-01	-5.060149e-02	0.0	4.802700e-01	-5.089775e-02	0.0	4.645100e-01	-5.117554e-02	0.0	4.487800e-01	-5.143670e-02	0.0	4.331100e-01	-5.168146e-02	0.0	4.175000e-01	-5.190932e-02	0.0	4.019700e-01	-5.211839e-02	0.0	3.865400e-01	-5.230586e-02	0.0	3.712300e-01	-5.246816e-02	0.0	3.560400e-01	-5.260130e-02	0.0	3.409900e-01	-5.270061e-02	0.0	3.261100e-01	-5.276113e-02	0.0	3.114000e-01	-5.277790e-02	0.0	2.968700e-01	-5.274582e-02	0.0	2.825500e-01	-5.265996e-02	0.0	2.684500e-01	-5.251559e-02	0.0	2.545700e-01	-5.230801e-02	0.0	2.409400e-01	-5.203324e-02	0.0	2.275700e-01	-5.168749e-02	0.0	2.144700e-01	-5.126729e-02	0.0	2.016600e-01	-5.076993e-02	0.0	1.891400e-01	-5.019238e-02	0.0	1.769300e-01	-4.953284e-02	0.0	1.650400e-01	-4.878952e-02	0.0	1.534900e-01	-4.796177e-02	0.0	1.422900e-01	-4.704883e-02	0.0	1.314400e-01	-4.604934e-02	0.0	1.209500e-01	-4.496296e-02	0.0	1.108500e-01	-4.379208e-02	0.0	1.011300e-01	-4.253503e-02	0.0	9.181000e-02	-4.119389e-02	0.0	8.290000e-02	-3.976997e-02	0.0	7.440000e-02	-3.826304e-02	0.0	6.633000e-02	-3.667657e-02	0.0	5.869000e-02	-3.501058e-02	0.0	5.149000e-02	-3.326708e-02	0.0	4.474000e-02	-3.144844e-02	0.0	3.844000e-02	-2.955433e-02	0.0	3.260000e-02	-2.758711e-02	0.0	2.723000e-02	-2.554977e-02	0.0	2.232000e-02	-2.343708e-02	0.0	1.790000e-02	-2.126113e-02	0.0	1.395000e-02	-1.901092e-02	0.0	1.049000e-02	-1.669561e-02	0.0	7.520000e-03	-1.431461e-02	0.0	5.040000e-03	-1.186637e-02	0.0	3.050000e-03	-9.347302e-03	0.0	1.560000e-03	-6.769269e-03	0.0	5.600000e-04	-4.108233e-03	0.0	6.000000e-05	-1.363608e-03	0.0	0.000000e+00	0.000000e+00	0.0	6.000000e-05	1.350236e-03	0.0	5.600000e-04	4.050826e-03	0.0	1.560000e-03	6.663226e-03	0.0	3.050000e-03	9.195473e-03	0.0	5.040000e-03	1.167583e-02	0.0	7.520000e-03	1.409653e-02	0.0	1.049000e-02	1.646478e-02	0.0	1.395000e-02	1.878581e-02	0.0	1.790000e-02	2.106403e-02	0.0	2.232000e-02	2.329392e-02	0.0	2.723000e-02	2.549065e-02	0.0	3.260000e-02	2.764558e-02	0.0	3.844000e-02	2.976800e-02	0.0	4.474000e-02	3.185849e-02	0.0	5.149000e-02	3.391797e-02	0.0	5.869000e-02	3.595015e-02	0.0	6.633000e-02	3.795531e-02	0.0	7.440000e-02	3.993367e-02	0.0	8.290000e-02	4.188739e-02	0.0	9.181000e-02	4.381361e-02	0.0	1.011300e-01	4.571359e-02	0.0	1.108500e-01	4.758588e-02	0.0	1.209500e-01	4.942683e-02	0.0	1.314400e-01	5.123782e-02	0.0	1.422900e-01	5.301272e-02	0.0	1.534900e-01	5.474871e-02	0.0	1.650400e-01	5.644398e-02	0.0	1.769300e-01	5.809472e-02	0.0	1.891400e-01	5.969553e-02	0.0	2.016600e-01	6.124223e-02	0.0	2.144700e-01	6.272926e-02	0.0	2.275700e-01	6.415328e-02	0.0	2.409400e-01	6.550849e-02	0.0	2.545700e-01	6.679020e-02	0.0	2.684500e-01	6.799357e-02	0.0	2.825500e-01	6.911218e-02	0.0	2.968700e-01	7.014214e-02	0.0	3.114000e-01	7.107860e-02	0.0	3.261100e-01	7.191555e-02	0.0	3.409900e-01	7.264840e-02	0.0	3.560400e-01	7.327286e-02	0.0	3.712300e-01	7.378330e-02	0.0	3.865400e-01	7.417483e-02	0.0	4.019700e-01	7.444303e-02	0.0	4.175000e-01	7.458295e-02	0.0	4.331100e-01	7.458992e-02	0.0	4.487800e-01	7.445955e-02	0.0	4.645100e-01	7.418745e-02	0.0	4.802700e-01	7.376991e-02	0.0	4.960500e-01	7.320341e-02	0.0	5.118400e-01	7.248482e-02	0.0	5.276100e-01	7.161270e-02	0.0	5.433600e-01	7.058503e-02	0.0	5.590600e-01	6.940265e-02	0.0	5.747100e-01	6.806549e-02	0.0	5.902800e-01	6.657731e-02	0.0	6.057600e-01	6.494175e-02	0.0	6.211300e-01	6.316504e-02	0.0	6.363800e-01	6.125402e-02	0.0	6.515000e-01	5.921698e-02	0.0	6.664700e-01	5.706516e-02	0.0	6.812700e-01	5.481151e-02	0.0	6.958900e-01	5.246892e-02	0.0	7.103200e-01	5.005129e-02	0.0	7.245300e-01	4.757686e-02	0.0	7.385200e-01	4.505941e-02	0.0	7.522800e-01	4.251466e-02	0.0	7.657800e-01	3.996213e-02	0.0	7.790100e-01	3.741749e-02	0.0	7.919700e-01	3.489399e-02	0.0	8.046400e-01	3.240819e-02	0.0	8.170100e-01	2.997405e-02	0.0	8.290500e-01	2.760884e-02	0.0	8.407700e-01	2.532127e-02	0.0	8.521600e-01	2.312328e-02	0.0	8.631800e-01	2.103157e-02	0.0	8.738500e-01	1.905016e-02	0.0	8.841500e-01	1.718895e-02	0.0	8.940600e-01	1.545535e-02	0.0	9.035800e-01	1.385019e-02	0.0	9.127000e-01	1.237271e-02	0.0	9.214000e-01	1.102010e-02	0.0	9.296900e-01	9.781662e-03	0.0	9.375400e-01	8.650401e-03	0.0	9.449600e-01	7.612208e-03	0.0	9.519400e-01	6.656126e-03	0.0	9.584700e-01	5.772587e-03	0.0	9.645400e-01	4.954359e-03	0.0	9.701500e-01	4.195689e-03	0.0	9.752800e-01	3.496291e-03	0.0	9.799500e-01	2.852720e-03	0.0	9.841300e-01	2.270023e-03	0.0	9.878400e-01	1.747228e-03	0.0	9.910500e-01	1.290667e-03	0.0	9.937800e-01	8.994899e-04	0.0	9.960200e-01	5.767420e-04	0.0	9.977600e-01	3.250644e-04	0.0	9.990000e-01	1.452495e-04	0.0	9.997500e-01	3.632890e-05	0.0	1.000000e+00	0.000000e+00	0.0	1.984229e+01	2.506660e+00	0.0	1.937166e+01	4.973800e+00	0.0	1.859553e+01	7.362490e+00	0.0	1.752613e+01	9.635070e+00	0.0	1.618034e+01	1.175571e+01	0.0	1.457937e+01	1.369094e+01	0.0	1.274848e+01	1.541027e+01	0.0	1.071654e+01	1.688656e+01	0.0	8.515590e+00	1.809654e+01	0.0	6.180340e+00	1.902113e+01	0.0	3.747630e+00	1.964575e+01	0.0	1.255810e+00	1.996053e+01	0.0	-1.255810e+00	1.996053e+01	0.0	-3.747630e+00	1.964574e+01	0.0	-6.180340e+00	1.902113e+01	0.0	-8.515590e+00	1.809654e+01	0.0	-1.071654e+01	1.688656e+01	0.0	-1.274848e+01	1.541026e+01	0.0	-1.457937e+01	1.369094e+01	0.0	-1.618034e+01	1.175570e+01	0.0	-1.752613e+01	9.635070e+00	0.0	-1.859553e+01	7.362490e+00	0.0	-1.937166e+01	4.973800e+00	0.0	-1.984229e+01	2.506660e+00	0.0	-2.000000e+01	0.000000e+00	0.0	-1.984229e+01	-2.506670e+00	0.0	-1.937166e+01	-4.973800e+00	0.0	-1.859553e+01	-7.362490e+00	0.0	-1.752613e+01	-9.635080e+00	0.0	-1.618034e+01	-1.175571e+01	0.0	-1.457937e+01	-1.369094e+01	0.0	-1.274848e+01	-1.541027e+01	0.0	-1.071653e+01	-1.688656e+01	0.0	-8.515580e+00	-1.809654e+01	0.0	-6.180340e+00	-1.902113e+01	0.0	-3.747620e+00	-1.964575e+01	0.0	-1.255810e+00	-1.996053e+01	0.0	1.255810e+00	-1.996053e+01	0.0	3.747630e+00	-1.964574e+01	0.0	6.180340e+00	-1.902113e+01	0.0	8.515590e+00	-1.809654e+01	0.0	1.071654e+01	-1.688656e+01	0.0	1.274848e+01	-1.541026e+01	0.0	1.457937e+01	-1.369094e+01	0.0	1.618034e+01	-1.175570e+01	0.0	1.752614e+01	-9.635070e+00	0.0	1.859553e+01	-7.362490e+00	0.0	1.937166e+01	-4.973790e+00	0.0	1.984229e+01	-2.506660e+00	0.0	2.000000e+01	0.000000e+00	0.0	6.093892e-02	-4.285144e-02	0.0	6.600410e-01	-5.844939e-02	0.0	4.255297e-01	8.863687e-02	0.0	6.904536e-01	6.677179e-02	0.0	3.791252e-01	-6.656260e-02	0.0	9.994589e-01	-7.258723e-04	0.0	9.985402e-01	-1.320872e-03	0.0	7.738251e-01	-4.634860e-02	0.0	6.897588e-01	-5.606349e-02	0.0	-1.367138e-03	6.233161e-03	0.0	7.467650e-01	-4.997311e-02	0.0	5.838090e-01	8.122916e-02	0.0	9.927651e-01	-3.598793e-03	0.0	9.898616e-01	-4.480982e-03	0.0	5.994275e-01	7.958836e-02	0.0	7.187102e-01	-5.322760e-02	0.0	-1.548094e-03	7.305687e-04	0.0	9.864673e-01	-5.441292e-03	0.0	9.825916e-01	-6.470515e-03	0.0	-1.358171e-03	-6.336027e-03	0.0	6.449375e-01	-5.947833e-02	0.0	8.244939e-01	-3.842106e-02	0.0	7.997632e-01	-4.246746e-02	0.0	3.482204e-01	8.660152e-02	0.0	8.478910e-01	-3.434813e-02	0.0	2.468390e-01	7.862192e-02	0.0	8.698983e-01	-3.032503e-02	0.0	1.001408e-02	2.079824e-02	0.0	8.904116e-01	-2.642047e-02	0.0	7.722818e-02	-4.682321e-02	0.0	9.093595e-01	-2.267674e-02	0.0	-1.865007e-03	-3.138557e-03	0.0	9.422484e-01	-1.580904e-02	0.0	9.266631e-01	-1.912583e-02	0.0	1.806769e-02	-2.637803e-02	0.0	4.256782e-01	-6.623083e-02	0.0	8.590773e-01	-3.232303e-02	0.0	9.560748e-01	-1.276843e-02	0.0	9.782290e-01	-7.589010e-03	0.0	9.680882e-01	-1.002215e-02	0.0	1.584746e-01	-5.900398e-02	0.0	9.000881e-01	-2.452666e-02	0.0	7.604299e-01	-4.820093e-02	0.0	9.971132e-01	-2.058079e-03	0.0	5.988429e-01	-6.197001e-02	0.0	4.413590e-01	-6.604490e-02	0.0	5.361230e-01	-6.418097e-02	0.0	4.728882e-01	-6.557080e-02	0.0	5.045102e-01	-6.495629e-02	0.0	4.886866e-01	-6.528085e-02	0.0	1.251652e-01	-5.514410e-02	0.0	2.799454e-02	-3.148915e-02	0.0	3.945492e-01	-6.649285e-02	0.0	4.640172e-02	-3.855324e-02	0.0	4.100682e-01	-6.638196e-02	0.0	3.187978e-01	-6.636792e-02	0.0	3.486567e-01	-6.657206e-02	0.0	3.367005e-02	-3.391128e-02	0.0	2.896281e-01	-6.592628e-02	0.0	9.346743e-01	-1.743395e-02	0.0	1.470184e-01	-5.780948e-02	0.0	1.948400e-01	-6.200962e-02	0.0	8.600599e-02	-4.867547e-02	0.0	1.048018e-01	-5.210645e-02	0.0	5.676108e-01	-6.321237e-02	0.0	1.702734e-01	-6.010386e-02	0.0	6.143295e-01	-6.122907e-02	0.0	8.803501e-01	-2.835590e-02	0.0	2.280418e-02	-2.897635e-02	0.0	9.951875e-01	-2.803889e-03	0.0	6.796488e-03	-1.820110e-02	0.0	1.798544e-02	2.626178e-02	0.0	9.182203e-01	-2.087471e-02	0.0	9.49388
[...]
POINT_DATA 5233

SCALARS Conservative_1 float 1
LOOKUP_TABLE default
4.294538e-01	2.170458e-01	1.785108e-01	1.492255e-01	1.300655e-01	1.153619e-01	1.036257e-01	9.409550e-02	8.626480e-02	7.976907e-02	7.432323e-02	6.973458e-02	6.581795e-02	6.246933e-02	5.957630e-02	5.706515e-02	5.486989e-02	5.281835e-02	5.088973e-02	4.913298e-02	4.771208e-02	4.651859e-02	4.553916e-02	4.474527e-02	4.405294e-02	4.352944e-02	4.305246e-02	4.270688e-02	4.236244e-02	4.206599e-02	4.178476e-02	4.142223e-02	4.109433e-02	4.060432e-02	4.011932e-02	3.947971e-02	3.883790e-02	3.805375e-02	3.728767e-02	3.640509e-02	3.556633e-02	3.464365e-02	3.379160e-02	3.288481e-02	3.206386e-02	3.121881e-02	3.045774e-02	2.970550e-02	2.901985e-02	2.836663e-02	2.776809e-02	2.720280e-02	2.666636e-02	2.618991e-02	2.571809e-02	2.531265e-02	2.490211e-02	2.454401e-02	2.417288e-02	2.384495e-02	2.349557e-02	2.318114e-02	2.283496e-02	2.251726e-02	2.216068e-02	2.182331e-02	2.144158e-02	2.106961e-02	2.065399e-02	2.022935e-02	1.977262e-02	1.928293e-02	1.877367e-02	1.821669e-02	1.763282e-02	1.701173e-02	1.633885e-02	1.563190e-02	1.487094e-02	1.406601e-02	1.320186e-02	1.228385e-02	1.130324e-02	1.025750e-02	9.139946e-03	7.949923e-03	6.678879e-03	5.324540e-03	3.892982e-03	2.368455e-03	8.113117e-04	-6.241827e-04	-2.525776e-03	-4.881523e-03	-1.802220e-03	6.627899e-03	8.009308e-03	2.302490e-03	-5.023582e-03	-1.188076e-02	-1.820138e-02	-3.205341e-02	-5.233982e-02	-6.896338e-02	-8.476128e-02	-1.085289e-01	-1.353880e-01	-1.532506e-01	-1.606340e-01	-1.632583e-01	-1.645757e-01	-1.648526e-01	-1.637874e-01	-1.612146e-01	-1.577104e-01	-1.538614e-01	-1.501291e-01	-1.467152e-01	-1.438509e-01	-1.414688e-01	-1.395242e-01	-1.380988e-01	-1.372462e-01	-1.369712e-01	-1.368718e-01	-1.366212e-01	-1.360920e-01	-1.352713e-01	-1.341941e-01	-1.329435e-01	-1.314754e-01	-1.301047e-01	-1.289397e-01	-1.280139e-01	-1.269284e-01	-1.249566e-01	-1.217624e-01	-1.165452e-01	-1.080930e-01	-9.638968e-02	-8.570577e-02	-8.079275e-02	-8.139021e-02	-8.394844e-02	-8.632770e-02	-8.792848e-02	-8.898234e-02	-8.962672e-02	-8.980544e-02	-8.961410e-02	-8.900237e-02	-8.819239e-02	-8.705340e-02	-8.574413e-02	-8.431057e-02	-8.266215e-02	-8.104604e-02	-7.924088e-02	-7.742357e-02	-7.558825e-02	-7.368984e-02	-7.189176e-02	-7.002982e-02	-6.832759e-02	-6.659102e-02	-6.504688e-02	-6.349774e-02	-6.216134e-02	-6.084058e-02	-5.974484e-02	-5.868036e-02	-5.785585e-02	-5.705377e-02	-5.651387e-02	-5.608436e-02	-5.585116e-02	-5.585126e-02	-5.607010e-02	-5.663798e-02	-5.747899e-02	-5.885905e-02	-6.055789e-02	-6.254066e-02	-6.473182e-02	-6.734404e-02	-7.030582e-02	-7.371560e-02	-7.752897e-02	-8.185156e-02	-8.673951e-02	-9.236472e-02	-9.889026e-02	-1.066044e-01	-1.158118e-01	-1.269975e-01	-1.407972e-01	-1.618261e-01	-1.815000e-01	-3.471185e-01	3.150669e-02	-1.201107e-04	-1.315195e-04	-1.421260e-04	-1.510646e-04	-1.619066e-04	-1.698887e-04	-1.786067e-04	-1.809541e-04	-1.737612e-04	-1.709414e-04	-1.757203e-04	-1.761921e-04	-1.773760e-04	-1.680860e-04	-1.483133e-04	-1.391217e-04	-1.197211e-04	-1.059318e-04	-9.103924e-05	-7.125992e-05	-4.358786e-05	-2.764426e-05	3.307987e-05	1.840960e-04	1.400034e-04	1.649937e-04	2.255035e-04	2.299793e-04	1.410806e-04	1.751458e-04	2.034371e-04	2.177919e-04	2.292077e-04	2.305215e-04	2.290644e-04	2.168857e-04	1.812140e-04	1.499540e-04	9.108571e-05	6.705008e-05	5.519591e-05	3.394498e-05	1.233273e-05	-1.017812e-05	-3.133454e-05	-5.007875e-05	-6.625897e-05	-8.189379e-05	-9.563414e-05	-1.085586e-04	9.907929e-03	3.264625e-02	-7.421606e-02	-6.159865e-02	2.190464e-02	3.361881e-01	2.412438e-01	3.783903e-02	3.416545e-02	-3.258643e-02	3.675988e-02	-7.058458e-02	1.283040e-01	1.123169e-01	-6.934153e-02	3.555014e-02	-1.385210e-02	1.002222e-01	9.076904e-02	3.895699e-03	3.187619e-02	3.999374e-02	3.886625e-02	-7.218395e-02	4.138661e-02	-1.056844e-01	4.321575e-02	-1.148297e-01	4.572232e-02	1.164724e-02	4.922261e-02	-2.041311e-03	5.768884e-02	5.316541e-02	1.562105e-03	2.298606e-02	4.222469e-02	6.362505e-02	8.315147e-02	7.171789e-02	1.657207e-02	4.734772e-02	3.734012e-02	1.834491e-01	2.949104e-02	2.340954e-02	2.663516e-02	2.433565e-02	2.541572e-02	2.486334e-02	1.504127e-02	4.314903e-03	2.223667e-02	7.896692e-03	2.261031e-02	2.068153e-02	2.127091e-02	5.586673e-03	2.010448e-02	5.530642e-02	1.610260e-02	1.783096e-02	1.242487e-02	1.382562e-02	2.799910e-02	1.702357e-02	3.028950e-02	4.435931e-02	2.975820e-03	1.504990e-01	-3.138259e-03	-1.347308e-01	5.118758e-02	6.043397e-02	7.690488e-02	-4.626904e-02	4.062827e-02	1.919864e-02	2.731041e-02	3.619383e-02	3.835957e-02	1.445670e-02	1.854928e-02	2.874803e-02	3.343874e-02	8.936163e-03	-3.557404e-03	2.076439e-04	2.157149e-02	1.743805e-02	4.566480e-01	1.888891e-02	1.315266e-02	2.038265e-02	1.951624e-02	2.385255e-02	3.489828e-02	-2.050339e-02	6.510321e-03	-7.377264e-02	-8.594375e-03	-1.407403e-01	-1.360686e-01	-1.411136e-01	-1.183258e-01	-7.312690e-02	-1.704296e-01	-7.455324e-02	-7.571441e-02	-8.363323e-02	-7.482177e-02	-5.477107e-02	-7.555191e-02	-7.503099e-02	-7.071120e-02	-6.085215e-02	-5.740374e-02	-1.263691e-01	-8.910611e-02	-7.120122e-02	-6.527110e-02	-1.214998e-01	-1.327771e-01	-9.968276e-02	-1.042264e-01	-1.148524e-01	-8.713919e-02	-7.553706e-02	-7.185702e-02	-1.163957e-01	-1.174174e-01	-6.678743e-02	-1.122836e-01	-1.089079e-01	-6.415791e-02	-7.170310e-02	-5.716718e-02	-5.923855e-02	-5.416916e-02	-5.546524e-02	-5.305646e-02	-5.336419e-02	-5.593505e-02	-5.342683e-02	-6.804705e-02	-5.907009e-02	-7.892200e-02	-5.315383e-02	-5.396195e-02	-5.367312e-02	-5.311106e-02	-5.624129e-02	-5.473800e-02	-6.036022e-02	-5.813511e-02	-6.545564e-02	-6.283672e-02	-7.280242e-02	-6.809642e-02	-1.106761e-01	-1.072062e-01	-1.157598e-01	-1.136983e-01	-1.390408e-01	-1.168637e-01	-1.283603e-01	-1.417080e-01	1.820512e-02	-7.013297e-02	6.734069e-02	3.939421e-02	2.096354e-02	2.601178e-02	-5.672847e-02	-1.383968e-01	-9.243003e-02	-1.237054e-01	-1.294663e-01	-1.024752e-01	-1.196896e-01	-9.561320e-02	-1.034863e-01	-9.485512e-02	-1.134095e-01	-1.263540e-01	-7.822992e-02	-7.039610e-02	-6.292723e-02	-4.014893e-01	-2.166157e-01	-2.901524e-01	3.106200e-02	6.780358e-03	-1.441665e-01	-7.518106e-02	1.811950e-03	-1.102134e-03	1.080799e-02	1.559165e-02	1.980425e-02	-1.096386e-01	-3.003661e-02	-2.062866e-02	1.740920e-02	3.045718e-02	4.806445e-02	-1.408206e-03	-5.885006e-02	2.977176e-02	3.455974e-02	1.065664e-01	1.817814e-02	3.935361e-02	3.750265e-02	1.152871e-02	3.786602e-03	1.610797e-02	1.046520e-03	6.406076e-02	1.446499e-02	3.121172e-02	2.830819e-02	2.065642e-02	1.089782e-02	1.928120e-02	4.442966e-02	3.523353e-02	-7.920832e-02	-1.129197e-01	-5.403009e-02	-4.951547e-02	-1.002969e-01	-5.321229e-02	-9.482153e-02	-5.101647e-02	-1.075602e-01	-5.775478e-02	-6.161818e-02	-6.727354e-02	-5.188669e-02	-1.197245e-01	-7.059893e-02	-9.041504e-02	-8.509927e-02	-5.956443e-02	-8.692730e-02	-1.020810e-01	2.900106e-02	1.580577e-02	-9.614914e-02	-9.666076e-02	-1.179093e-01	-7.889772e-02	-1.357377e-01	-5.291953e-02	1.481735e-02	-1.307351e-01	-1.837217e-01	-1.582216e-01	-6.033324e-02	-3.943639e-02	-3.010870e-03	-6.142756e-03	-1.056467e-02	2.302747e-03	1.512465e-01	9.457694e-03	1.968371e-01	1.399241e-01	-6.165567e-02	2.355764e-02	9.530718e-02	4.162034e-02	-5.814034e-02	1.209055e-01	-7.470059e-04	2.026812e-02	-6.132454e-02	3.835234e-02	-7.735367e-02	4.041397e-02	4.294923e-02	1.020585e-02	4.613882e-02	5.017126e-02	5.739502e-02	4.687798e-03	6.046850e-02	6.825688e-02	8.644170e-02	1.362182e-02	3.319654e-02	3.391211e-02	1.661672e-01	2.105585e-02	2.148293e-02	2.196832e-02	3.525575e-03	1.957745e-02	1.993396e-02	1.842121e-02	6.809357e-03	5.234001e-02	5.470666e-02	1.405730e-02	1.211888e-02	2.418499e-02	2.612079e-02	7.322707e-02	7.917005e-02	3.186043e-02	3.257964e-02	1.265382e-02	1.316911e-02	2.478071e-02	2.547546e-02	7.759582e-03	8.644377e-03	-4.597762e-05	1.870591e-02	1.897229e-02	1.517866e-02	1.550089e-02	1.637280e-02	1.665335e-02	1.767249e-02	1.790776e-02	1.690322e-02	-1.426515e-02	-1.177220e-03	-1.195594e-01	-9.799912e-02	-6.106595e-02	-6.195254e-02	-6.231115e-02	-6.246589e-02	-8.411970e-02	-7.445300e-02	-5.767233e-02	-6.239843e-02	-6.204856e-02	-6.095843e-02	-5.582968e-02	-6.434148e-02	-1.126660e-01	-1.154693e-01	-8.318602e-02	-8.079631e-02	-9.579612e-02	-9.764969e-02	-9.884705e-02	-4.931159e-02	-5.067673e-02	-5.127255e-02	-4.958901e-02	-4.932927e-02	-5.423990e-02	-5.038215e-02	-4.986523e-02	-4.917699e-02	-4.924778e-02	-4.983468e-02	-5.026704e-02	-5.182498e-02	-5.254260e-02	-5.478210e-02	-5.564489e-02	-5.970793e-02	-6.044722e-02	-5.646221e-02	-5.727975e-02	-8.873248e-02	-9.043468e-02	-9.210929e-02	-9.356958e-02	-1.067159e-01	-1.199580e-01	-1.189924e-01	3.596045e-02	3.667367e-02	2.246306e-02	2.301587e-02	-4.745987e-02	-1.167564e-01	-1.041704e-01	-1.067071e-01	-6.544236e-02	-7.208359e-02	-6.033396e-02	-5.876899e-02	-6.184342e-02	-5.960201e-02	2.686245e-02	2.754060e-02	5.785639e-03	3.584916e-03	1.717536e-02	-3.761113e-05	1.686834e-02	1.510396e-02	3.177590e-02	2.032523e-02	4.645698e-02	-1.038831e-01	-9.539560e-02	-6.877096e-02	-4.128475e-02	-1.131377e-01	-2.351740e-01	-2.138918e-01	1.514316e-01	5.394881e-03	2.982274e-03	-1.256217e-02	1.052253e-02	4.863603e-02	1.041038e-01	-4.944956e-02	2.560687e-01	-1.549723e-03	2.743148e-02	9.818448e-04	2.812923e-02	1.902349e-03	3.848083e-02	-1.161492e-04	1.581650e-02	3.730253e-02	2.668579e-02	1.150921e-01	8.597933e-04	-8.225380e-02	-5.072624e-02	-6.245159e-02	-4.668852e-02	-1.257816e-01	-5.092954e-02	-5.734223e-02	-4.455534e-02	-7.595153e-02	-9.330228e-02	-2.343568e-01	2.659072e-03	-2.664150e-02	-8.749264e-02	-1.930770e-02	6.340880e-02	1.004348e-02	-8.954178e-03	1.275360e-02	1.817851e-02	4.028567e-03	-6.659807e-02	-4.580388e-02	-4.482147e-02	-4.627195e-02	-8.830722e-02	-6.542059e-02	-4.938128e-02	-4.835783e-02	-4.333329e-02	-5.163600e-02	-6.717695e-02	-8.342539e-02	2.526213e-02	2.598875e-02	1.376549e-02	-7.885755e-02	-7.713849e-02	-7.704564e-02	-1.442738e-01	-5.255941e-02	-3.373247e-02	-1.854852e-03	-4.783091e-03	5.015077e-03	2.295635e-01	2.569347e-01	6.775526e-02	9.415359e-02	-4.888023e-02	1.782656e-02	-5.152964e-02	3.523836e-02	3.619698e-02	3.975738e-02	4.116936e-02	8.909301e-03	9.502358e-03	4.269425e-02	4.449812e-02	5.639122e-02	5.964657e-02	8.584987e-02	3.025099e-02	3.109058e-02	1.300597e-01	1.858997e-02	1.895117e-02	1.714167e-02	1.749235e-02	5.920595e-03	5.099392e-02	5.351514e-02	1.211489e-02	1.243944e-02	2.087496e-02	2.140559e-02	7.280768e-02	7.881141e-02	2.890023e-02	2.962463e-02	1.096987e-02	1.138853e-02	1.178334e-02	2.200988e-02	2.259988e-02	6.768630e-03	7.550594e-03	8.275233e-03	1.603526e-02	1.632173e-02	1.655962e-02	1.301747e-02	1.328133e-02	1.354835e-02	1.402205e-02	1.421637e-02	1.535198e-02	1.555508e-02	1.446601e-02	-9.821437e-02	-5.130175e-02	-5.161861e-02	-7.263018e-02	-5.176859e-02	-5.165672e-02	-5.155498e-02	-5.164507e-02	-5.362288e-02	-9.552292e-02	-9.720267e-02	-6.183894e-02	-6.494896e-02	-7.850857e-02	-8.003324e-02	-8.159182e-02	-4.509974e-02	-5.200204e-02	-5.052422e-02	-4.755475e-02	-4.679926e-02	-4.624475e-02	-4.529436e-02	-4.517482e-02	-4.499076e-02	-4.484008e-02	-4.483635e-02	-4.496699e-02	-4.535044e-02	-4.559212e-02	-4.593382e-02	-4.709602e-02	-5.001103e-02	-5.035072e-02	-4.756298e-02	-4.798780e-02	-4.851952e-02	-6.878324e-02	-7.021022e-02	-7.169855e-02	-7.323103e-02	-7.469953e-02	-9.837891e-02	-9.768013e-02	3.262212e-02	3.345961e-02	3.428253e-02	1.935771e-02	1.987419e-02	-9.606030e-02	-9.298527e-02	-8.550117e-02	-8.796916e-02	-9.066635e-02	-4.607406e-02	-5.153418e-02	-5.031625e-02	-4.780874e-02	-5.988944e-02	-5.755856e-02	-5.553382e-02	2.325559e-02	2.389234e-02	2.458772e-02	1.466767e-02	1.491209e-02	-4.634471e-04	9.486043e-03	-1.101560e-01	-7.821995e-02	1.846057e-02	-1.305613e-02	1.590114e-01	4.474745e-02	4.699852e-02	5.296138e-03	-9.552244e-02	-4.349626e-02	9.012409e-04	-6.432429e-02	-1.445323e-05	-6.294734e-02	-1.016573e-01	-2.454370e-02	-4.175869e-02	-3.030058e-02	-9.257835e-02	1.015502e-01	2.996216e-02	1.115101e-02	3.636330e-03	1.484037e-02	9.150370e-03	1.577834e-02	1.310622e-02	-8.332106e-02	-4.291158e-02	-6.011650e-02	-5.762891e-02	-4.114026e-02	-5.995545e-02	-4.135969e-02	8.854146e-02	-7.741040e-02	3.559999e-02	-1.501331e-01	-8.909950e-02	1.131566e-01	6.563098e-02	2.746919e-03	2.464485e-02	-8.936250e-04	2.514117e-02	2.614516e-02	1.824790e-03	9.610548e-02	9.956662e-04	-4.267120e-02	-4.386402e-02	-3.129780e-02	-1.874518e-02	-5.540863e-02	-4.113961e-02	-4.602694e-02	-3.483568e-02	-3.173313e-02	-3.581213e-02	2.324385e-02	2.371007e-02	-7.364197e-02	-4.557227e-02	-3.687741e-02	-1.453631e-04	-3.522341e-03	4.514441e-03	6.157114e-02	8.165289e-02	-4.242283e-02	3.345536e-02	3.441566e-02	3.677557e-02	3.809755e-02	8.314263e-03	8.752440e-03	3.945690e-02	4.103898e-02	4.287957e-02	5.477386e-02	5.796327e-02	2.834070e-02	2.893444e-02	1.034328e-01	1.620010e-02	1.662756e-02	1.507297e-02	1.547026e-02	4.939441e-02	5.190918e-02	1.066891e-02	1.084158e-02	1.876605e-02	7.028195e-02	7.563421e-02	2.673320e-02	2.738974e-02	9.826713e-03	1.008997e-02	1.044584e-02	1.949899e-02	1.985572e-02	6.012248e-03	6.678636e-03	7.306058e-03	7.849606e-03	1.374512e-02	1.400941e-02	1.424532e-02	1.454029e-02	1.129132e-02	1.154378e-02	1.170495e-02	1.193088e-02	1.208836e-02	1.353449e-02	1.329458e-02	1.230636e-02	-4.385412e-02	-6.963696e-02	-6.609812e-02	-4.403408e-02	-4.397631e-02	-4.392260e-02	-4.391991e-02	-4.403530e-02	-7.825679e-02	-7.848572e-02	-4.620971e-02	-4.999366e-02	-6.143479e-02	-6.329391e-02	-6.490644e-02	-6.677239e-02	-4.966794e-02	-4.826304e-02	-4.701668e-02	-4.508827e-02	-4.431400e-02	-4.356558e-02	-4.309392e-02	-4.198096e-02	-4.182684e-02	-4.169857e-02	-4.130122e-02	-4.086586e-02	-4.116107e-02	-4.079206e-02	-4.120679e-02	-4.088892e-02	-4.141380e-02	-4.316632e-02	-4.363955e-02	-4.150782e-02	-4.221100e-02	-4.198434e-02	-4.271267e-02	-5.203440e-02	-5.352291e-02	-5.450860e-02	-5.586158e-02	-5.719015e-02	-5.856111e-02	-7.836930e-02	-7.811920e-02	3.066869e-02	3.148413e-02	3.246496e-02	1.689360e-02	1.753819e-02	1.780219e-02	-7.739933e-02	-7.533015e-02	-7.107048e-02	-6.892321e-02	-7.142796e-02	-7.389396e-02	-7.593571e-02	-4.420768e-02	-4.368138e-02	-4.210291e-02	-3.908481e-02	-5.135812e-02	-5.530935e-02	-5.333033e-02	2.065186e-02	2.105330e-02	2.190369e-02	2.234351e-02	1.248234e-02	1.270829e-02	1.288002e-02	2.731464e-03	-9.642079e-02	5.886701e-02	-1.615409e-01	1.996581e-03	2.394834e-02	8.559034e-03	1.218964e-03	-6.938380e-02	2.518650e-04	4.904705e-03	9.735266e-03	-4.798856e-02	-4.572139e-02	-2.740905e-02	-1.339879e-02	-8.810389e-03	-7.332444e-03	-8.961334e-03	1.307564e-05	9.781256e-02	-2.809798e-02	6.244693e-02	8.077877e-02	4.546409e-02	2.795622e-02	1.316085e-02	-8.558179e-02	-4.810961e-02	-5.311318e-02	-3.851885e-02	-3.853270e-02	-3.754477e-02	-3.816885e-02	-3.826083e-02	1.651472e-02	-3.338736e-02	-8.147968e-02	8.299918e-03	-1.721755e-01	-7.305103e-02	-6.565529e-03	1.735200e-01	1.851572e-01	4.362937e-02	5.482390e-03	-1.344959e-03	-5.204908e-02	4.626956e-04	-5.756117e-02	-2.274500e-02	-3.416556e-02	3.455158e-02	3.487481e-03	1.183006e-02	1.147876e-02	-7.691452e-02	-3.779274e-02	-5.528126e-02	7.534564e-02	2.243754e-02	-1.813860e-02	-2.337921e-02	-2.226514e-02	-2.554547e-02	2.106011e-02	-3.895582e-02	-3.272142e-02	-3.423140e-03	4.211673e-03	3.212989e-02	3.332165e-02	3.431911e-02	3.571257e-02	8.013090e-03	7.721455e-03	3.682428e-02	3.837651e-02	3.969992e-02	4.141799e-02	5.269316e-02	5.563608e-02	2.626211e-02	8.557203e-02	1.430823e-02	1.457997e-02	1.360740e-02	1.377294e-02	4.764511e-02	5.002461e-02	9.345308e-03	9.659698e-03	6.641459e-02	7.074393e-02	2.490693e-02	8.718118e-03	9.081307e-03	9.296789e-03	1.748712e-02	6.009824e-03	6.531708e-03	6.978067e-03	7.395754e-03	1.189225e-02	1.226439e-02	1.234511e-02	1.276697e-02	1.294980e-02	1.002479e-02	1.006090e-02	1.035711e-02	1.038531e-02	1.068707e-02	-6.600429e-02	-6.291701e-02	-6.012813e-02	-3.900891e-02	-3.852345e-02	-3.896078e-02	-3.848468e-02	-3.900095e-02	-6.183910e-02	-6.121126e-02	-2.932933e-02	-3.581594e-02	-5.092722e-02	-5.173955e-02	-5.350018e-02	-4.643007e-02	-4.541338e-02	-4.421085e-02	-4.349313e-02	-4.243435e-02	-4.182835e-02	-4.098261e-02	-4.024918e-02	-3.927200e-02	-3.888369e-02	-3.776476e-02	-3.754071e-02	-3.747860e-02	-3.773586e-02	-3.793532e-02	-3.818211e-02	-4.181709e-02	-4.195746e-02	-4.394093e-02	-4.402339e-02	-4.498922e-02	-4.643311e-02	-6.082793e-02	-6.105948e-02	2.913769e-02	3.026348e-02	3.111354e-02	1.491346e-02	1.562910e-02	-6.127593e-02	-6.013096e-02	-5.697551e-02	-5.565366e-02	-5.801276e-02	-6.014614e-02	-6.144704e-02	-6.184828e-02	-3.864505e-02	-3.906023e-02	-3.781216e-02	-3.607708e-02	-5.119769e-02	-4.958342e-02	1.858195e-02	1.977490e-02	1.073206e-02	1.106174e-02	1.109975e-02	1.142774e-02	1.874153e-01	-1.748383e-01	2.266815e-03	-9.668092e-03	8.406091e-02	5.812714e-02	-7.001520e-02	-1.755557e-02	-5.454241e-02	9.615647e-02	6.440574e-02	-4.120352e-03	5.183500e-03	2.924962e-03	-2.976987e-02	-8.317488e-02	-3.307208e-02	-2.111220e-02	3.528405e-03	5.524296e-02	1.420022e-02	-6.686357e-02	1.036465e-02	4.366390e-02	4.119064e-02	1.714155e-02	7.680718e-03	8.740843e-03	4.074974e-04	1.204551e-02	7.358367e-03	7.565025e-03	-4.206256e-02	-6.152152e-02	-4.567823e-02	-1.397466e-02	-3.761027e-02	5.252166e-02	-1.599963e-01	-6.407153e-02	-7.853679e-03	-2.046760e-03	6.811445e-02	2.233460e-02	-3.402286e-02	-3.465587e-02	-7.368081e-02	-1.581476e-03	-9.495623e-02	-5.461801e-03	1.729567e-01	5.571631e-03	1.431353e-03	1.727855e-03	-3.401745e-02	4.679039e-03	-5.260449e-02	-5.086554e-02	-3.404474e-02	-2.136963e-02	-1.796474e-02	2.103496e-02	-2.876412e-02	-2.477388e-02	4.115736e-03	3.156181e-02	3.393267e-02	7.125095e-03	3.651457e-02	3.850200e-02	4.999874e-02	7.238285e-02	1.269703e-02	4.556677e-02	4.768719e-02	8.448109e-03	6.112098e-02	2.346352e-02	2.495967e-02	8.039891e-03	8.224418e-03	1.506325e-02	5.965734e-03	6.286844e-03	6.662839e-03	6.936096e-03	1.076901e-02	1.127556e-02	1.155026e-02	9.010216e-03	9.304687e-03	-5.903514e-02	-5.670638e-02	-3.475432e-02	-3.488597e-02	-4.740452e-02	-2.411730e-02	-4.405664e-02	-3.638770e-02	-4.327691e-02	-4.131728e-02	-3.962382e-02	-3.815054e-02	-3.713524e-02	-3.557282e-02	-3.484228e-02	-3.433674e-02	-3.400992e-02	-3.381799e-02	-3.375513e-02	-3.375403e-02	-3.376981e-02	-3.131806e-02	-3.483547e-02	-3.546887e-02	-3.736886e-02	-3.829719e-02	-4.666947e-02	-4.735277e-02	2.655877e-02	2.840606e-02	2.975561e-02	1.308529e-02	1.347649e-02	-4.820991e-02	-4.774312e-02	-4.539611e-02	-4.188355e-02	-4.616478e-02	-4.811674e-02	-4.962919e-02	-5.004938e-02	-4.927814e-02	-4.992245e-02	-3.473801e-02	-3.326072e-02	-4.951895e-02	-4.762532e-02	1.605321e-02	1.832771e-02	1.962415e-02	9.643089e-03	9.990574e-03	-7.513891e-02	1.545462e-01	1.528593e-01	-1.036753e-01	6.176156e-03	-6.493555e-02	-4.373099e-02	8.541929e-02	2.736680e-03	4.183760e-03	1.060432e-01	7.409606e-02	-2.508031e-02	-1.416949e-02	-5.116571e-03	-5.266162e-02	2.121334e-02	-2.880200e-02	-8.538680e-02	3.529575e-02	5.008575e-03	-3.847505e-02	-2.797865e-02	3.173748e-03	1.048320e-02	4.153706e-02	1.639617e-02	1.342020e-02	5.076723e-02	5.301018e-02	5.334099e-03	5.621215e-03	-1.185465e-01	-5.867284e-02	-6.100065e-02	-4.944421e-02	-1.586071e-02	-3.108311e-02	1.883977e-02	6.594377e-03	-1.445931e-01	-1.456079e-01	-7.605058e-03	4.860567e-02	-5.099180e-02	4.154788e-02	5.547251e-02	-1.678026e-02	3.733205e-03	1.264180e-02	-1.870517e-03	6.704166e-03	6.795313e-03	-5.649869e-02	-1.067628e-02	4.664263e-02	5.811338e-02	2.007926e-02	-5.515504e-03	1.232114e-01	6.406704e-03	1.680129e-03	2.669104e-03	-3.111145e-02	4.606433e-03	-4.809115e-02	-3.113929e-02	-2.375662e-02	-3.112006e-02	-2.220466e-02	-1.946846e-02	3.046860e-02	3.294655e-02	3.749817e-02	3.982359e-02	6.253985e-02	1.102784e-02	4.312147e-02	4.480392e-02	1.010560e-02	2.542614e-02	2.696587e-02	2.244124e-02	6.858631e-03	7.084602e-03	7.168503e-03	5.862091e-03	9.176186e-03	9.637901e-03	7.319605e-03	7.531630e-03	1.757102e-02	-5.452898e-02	-3.113441e-02	-3.118035e-02	-3.702335e-02	-4.177497e-02	-3.965106e-02	-3.437945e-02	-3.778248e-02	-3.629585e-02	-3.520152e-02	-3.366247e-02	-3.296259e-02	-3.235724e-02	-3.190998e-02	-3.159271e-02	-3.136874e-02	-3.122967e-02	-1.273359e-02	-1.751828e-02	-2.377987e-02	-2.756588