# vtk DataFile Version 3.0
vtk output
ASCII
DATASET UNSTRUCTURED_GRID
POINTS 5233 float
9.997500e-01	-3.632909e-05	0.0	9.990000e-01	-1.452618e-04	0.0	9.977600e-01	-3.252008e-04	0.0	9.960200e-01	-5.774943e-04	0.0	9.937800e-01	-9.022942e-04	0.0	9.910500e-01	-1.298763e-03	0.0	9.878400e-01	-1.766726e-03	0.0	9.841300e-01	-2.311194e-03	0.0	9.799500e-01	-2.930640e-03	0.0	9.752800e-01	-3.631444e-03	0.0	9.701500e-01	-4.412625e-03	0.0	9.645400e-01	-5.280292e-03	0.0	9.584700e-01	-6.233365e-03	0.0	9.519400e-01	-7.272227e-03	0.0	9.449600e-01	-8.393908e-03	0.0	9.375400e-01	-9.593773e-03	0.0	9.296900e-01	-1.086609e-02	0.0	9.214000e-01	-1.220804e-02	0.0	9.127000e-01	-1.361074e-02	0.0	9.035800e-01	-1.507272e-02	0.0	8.940600e-01	-1.658877e-02	0.0	8.841500e-01	-1.815610e-02	0.0	8.738500e-01	-1.977361e-02	0.0	8.631800e-01	-2.143627e-02	0.0	8.521600e-01	-2.313752e-02	0.0	8.407700e-01	-2.487471e-02	0.0	8.290500e-01	-2.663345e-02	0.0	8.170100e-01	-2.840162e-02	0.0	8.046400e-01	-3.016792e-02	0.0	7.919700e-01	-3.191393e-02	0.0	7.790100e-01	-3.362378e-02	0.0	7.657800e-01	-3.528073e-02	0.0	7.522800e-01	-3.687177e-02	0.0	7.385200e-01	-3.838440e-02	0.0	7.245300e-01	-3.980643e-02	0.0	7.103200e-01	-4.113073e-02	0.0	6.958900e-01	-4.235375e-02	0.0	6.812700e-01	-4.347212e-02	0.0	6.664700e-01	-4.448693e-02	0.0	6.515000e-01	-4.540154e-02	0.0	6.363800e-01	-4.622067e-02	0.0	6.211300e-01	-4.695082e-02	0.0	6.057600e-01	-4.760016e-02	0.0	5.902800e-01	-4.817747e-02	0.0	5.747100e-01	-4.869148e-02	0.0	5.590600e-01	-4.915119e-02	0.0	5.433600e-01	-4.956464e-02	0.0	5.276100e-01	-4.993996e-02	0.0	5.118400e-01	-5.028359e-02	0.0	4.960500e-01	-5.060149e-02	0.0	4.802700e-01	-5.089775e-02	0.0	4.645100e-01	-5.117554e-02	0.0	4.487800e-01	-5.143670e-02	0.0	4.331100e-01	-5.168146e-02	0.0	4.175000e-01	-5.190932e-02	0.0	4.019700e-01	-5.211839e-02	0.0	3.865400e-01	-5.230586e-02	0.0	3.712300e-01	-5.246816e-02	0.0	3.560400e-01	-5.260130e-02	0.0	3.409900e-01	-5.270061e-02	0.0	3.261100e-01	-5.276113e-02	0.0	3.114000e-01	-5.277790e-02	0.0	2.968700e-01	-5.274582e-02	0.0	2.825500e-01	-5.265996e-02	0.0	2.684500e-01	-5.251559e-02	0.0	2.545700e-01	-5.230801e-02	0.0	2.409400e-01	-5.203324e-02	0.0	2.275700e-01	-5.168749e-02	0.0	2.144700e-01	-5.126729e-02	0.0	2.016600e-01	-5.076993e-02	0.0	1.891400e-01	-5.019238e-02	0.0	1.769300e-01	-4.953284e-02	0.0	1.650400e-01	-4.878952e-02	0.0	1.534900e-01	-4.796177e-02	0.0	1.422900e-01	-4.704883e-02	0.0	1.314400e-01	-4.604934e-02	0.0	1.209500e-01	-4.496296e-02	0.0	1.108500e-01	-4.379208e-02	0.0	1.011300e-01	-4.253503e-02	0.0	9.181000e-02	-4.119389e-02	0.0	8.290000e-02	-3.976997e-02	0.0	7.440000e-02	-3.826304e-02	0.0	6.633000e-02	-3.667657e-02	0.0	5.869000e-02	-3.501058e-02	0.0	5.149000e-02	-3.326708e-02	0.0	4.474000e-02	-3.144844e-02	0.0	3.844000e-02	-2.955433e-02	0.0	3.260000e-02	-2.758711e-02	0.0	2.723000e-02	-2.554977e-02	0.0	2.232000e-02	-2.343708e-02	0.0	1.790000e-02	-2.126113e-02	0.0	1.395000e-02	-1.901092e-02	0.0	1.049000e-02	-1.669561e-02	0.0	7.520000e-03	-1.431461e-02	0.0	5.040000e-03	-1.186637e-02	0.0	3.050000e-03	-9.347302e-03	0.0	1.560000e-03	-6.769269e-03	0.0	5.600000e-04	-4.108233e-03	0.0	6.000000e-05	-1.363608e-03	0.0	0.000000e+00	0.000000e+00	0.0	6.000000e-05	1.350236e-03	0.0	5.600000e-04	4.050826e-03	0.0	1.560000e-03	6.663226e-03	0.0	3.050000e-03	9.195473e-03	0.0	5.040000e-03	1.167583e-02	0.0	7.520000e-03	1.409653e-02	0.0	1.049000e-02	1.646478e-02	0.0	1.395000e-02	1.878581e-02	0.0	1.790000e-02	2.106403e-02	0.0	2.232000e-02	2.329392e-02	0.0	2.723000e-02	2.549065e-02	0.0	3.260000e-02	2.764558e-02	0.0	3.844000e-02	2.976800e-02	0.0	4.474000e-02	3.185849e-02	0.0	5.149000e-02	3.391797e-02	0.0	5.869000e-02	3.595015e-02	0.0	6.633000e-02	3.795531e-02	0.0	7.440000e-02	3.993367e-02	0.0	8.290000e-02	4.188739e-02	0.0	9.181000e-02	4.381361e-02	0.0	1.011300e-01	4.571359e-02	0.0	1.108500e-01	4.758588e-02	0.0	1.209500e-01	4.942683e-02	0.0	1.314400e-01	5.123782e-02	0.0	1.422900e-01	5.301272e-02	0.0	1.534900e-01	5.474871e-02	0.0	1.650400e-01	5.644398e-02	0.0	1.769300e-01	5.809472e-02	0.0	1.891400e-01	5.969553e-02	0.0	2.016600e-01	6.124223e-02	0.0	2.144700e-01	6.272926e-02	0.0	2.275700e-01	6.415328e-02	0.0	2.409400e-01	6.550849e-02	0.0	2.545700e-01	6.679020e-02	0.0	2.684500e-01	6.799357e-02	0.0	2.825500e-01	6.911218e-02	0.0	2.968700e-01	7.014214e-02	0.0	3.114000e-01	7.107860e-02	0.0	3.261100e-01	7.191555e-02	0.0	3.409900e-01	7.264840e-02	0.0	3.560400e-01	7.327286e-02	0.0	3.712300e-01	7.378330e-02	0.0	3.865400e-01	7.417483e-02	0.0	4.019700e-01	7.444303e-02	0.0	4.175000e-01	7.458295e-02	0.0	4.331100e-01	7.458992e-02	0.0	4.487800e-01	7.445955e-02	0.0	4.645100e-01	7.418745e-02	0.0	4.802700e-01	7.376991e-02	0.0	4.960500e-01	7.320341e-02	0.0	5.118400e-01	7.248482e-02	0.0	5.276100e-01	7.161270e-02	0.0	5.433600e-01	7.058503e-02	0.0	5.590600e-01	6.940265e-02	0.0	5.747100e-01	6.806549e-02	0.0	5.902800e-01	6.657731e-02	0.0	6.057600e-01	6.494175e-02	0.0	6.211300e-01	6.316504e-02	0.0	6.363800e-01	6.125402e-02	0.0	6.515000e-01	5.921698e-02	0.0	6.664700e-01	5.706516e-02	0.0	6.812700e-01	5.481151e-02	0.0	6.958900e-01	5.246892e-02	0.0	7.103200e-01	5.005129e-02	0.0	7.245300e-01	4.757686e-02	0.0	7.385200e-01	4.505941e-02	0.0	7.522800e-01	4.251466e-02	0.0	7.657800e-01	3.996213e-02	0.0	7.790100e-01	3.741749e-02	0.0	7.919700e-01	3.489399e-02	0.0	8.046400e-01	3.240819e-02	0.0	8.170100e-01	2.997405e-02	0.0	8.290500e-01	2.760884e-02	0.0	8.407700e-01	2.532127e-02	0.0	8.521600e-01	2.312328e-02	0.0	8.631800e-01	2.103157e-02	0.0	8.738500e-01	1.905016e-02	0.0	8.841500e-01	1.718895e-02	0.0	8.940600e-01	1.545535e-02	0.0	9.035800e-01	1.385019e-02	0.0	9.127000e-01	1.237271e-02	0.0	9.214000e-01	1.102010e-02	0.0	9.296900e-01	9.781662e-03	0.0	9.375400e-01	8.650401e-03	0.0	9.449600e-01	7.612208e-03	0.0	9.519400e-01	6.656126e-03	0.0	9.584700e-01	5.772587e-03	0.0	9.645400e-01	4.954359e-03	0.0	9.701500e-01	4.195689e-03	0.0	9.752800e-01	3.496291e-03	0.0	9.799500e-01	2.852720e-03	0.0	9.841300e-01	2.270023e-03	0.0	9.878400e-01	1.747228e-03	0.0	9.910500e-01	1.290667e-03	0.0	9.937800e-01	8.994899e-04	0.0	9.960200e-01	5.767420e-04	0.0	9.977600e-01	3.250644e-04	0.0	9.990000e-01	1.452495e-04	0.0	9.997500e-01	3.632890e-05	0.0	1.000000e+00	0.000000e+00	0.0	1.984229e+01	2.506660e+00	0.0	1.937166e+01	4.973800e+00	0.0	1.859553e+01	7.362490e+00	0.0	1.752613e+01	9.635070e+00	0.0	1.618034e+01	1.175571e+01	0.0	1.457937e+01	1.369094e+01	0.0	1.274848e+01	1.541027e+01	0.0	1.071654e+01	1.688656e+01	0.0	8.515590e+00	1.809654e+01	0.0	6.180340e+00	1.902113e+01	0.0	3.747630e+00	1.964575e+01	0.0	1.255810e+00	1.996053e+01	0.0	-1.255810e+00	1.996053e+01	0.0	-3.747630e+00	1.964574e+01	0.0	-6.180340e+00	1.902113e+01	0.0	-8.515590e+00	1.809654e+01	0.0	-1.071654e+01	1.688656e+01	0.0	-1.274848e+01	1.541026e+01	0.0	-1.457937e+01	1.369094e+01	0.0	-1.618034e+01	1.175570e+01	0.0	-1.752613e+01	9.635070e+00	0.0	-1.859553e+01	7.362490e+00	0.0	-1.937166e+01	4.973800e+00	0.0	-1.984229e+01	2.506660e+00	0.0	-2.000000e+01	0.000000e+00	0.0	-1.984229e+01	-2.506670e+00	0.0	-1.937166e+01	-4.973800e+00	0.0	-1.859553e+01	-7.362490e+00	0.0	-1.752613e+01	-9.635080e+00	0.0	-1.618034e+01	-1.175571e+01	0.0	-1.457937e+01	-1.369094e+01	0.0	-1.274848e+01	-1.541027e+01	0.0	-1.071653e+01	-1.688656e+01	0.0	-8.515580e+00	-1.809654e+01	0.0	-6.180340e+00	-1.902113e+01	0.0	-3.747620e+00	-1.964575e+01	0.0	-1.255810e+00	-1.996053e+01	0.0	1.255810e+00	-1.996053e+01	0.0	3.747630e+00	-1.964574e+01	0.0	6.180340e+00	-1.902113e+01	0.0	8.515590e+00	-1.809654e+01	0.0	1.071654e+01	-1.688656e+01	0.0	1.274848e+01	-1.541026e+01	0.0	1.457937e+01	-1.369094e+01	0.0	1.618034e+01	-1.175570e+01	0.0	1.752614e+01	-9.635070e+00	0.0	1.859553e+01	-7.362490e+00	0.0	1.937166e+01	-4.973790e+00	0.0	1.984229e+01	-2.506660e+00	0.0	2.000000e+01	0.000000e+00	0.0	6.093892e-02	-4.285144e-02	0.0	6.600410e-01	-5.844939e-02	0.0	4.255297e-01	8.863687e-02	0.0	6.904536e-01	6.677179e-02	0.0	3.791252e-01	-6.656260e-02	0.0	9.994589e-01	-7.258723e-04	0.0	9.985402e-01	-1.320872e-03	0.0	7.738251e-01	-4.634860e-02	0.0	6.897588e-01	-5.606349e-02	0.0	-1.367138e-03	6.233161e-03	0.0	7.467650e-01	-4.997311e-02	0.0	5.838090e-01	8.122916e-02	0.0	9.927651e-01	-3.598793e-03	0.0	9.898616e-01	-4.480982e-03	0.0	5.994275e-01	7.958836e-02	0.0	7.187102e-01	-5.322760e-02	0.0	-1.548094e-03	7.305687e-04	0.0	9.864673e-01	-5.441292e-03	0.0	9.825916e-01	-6.470515e-03	0.0	-1.358171e-03	-6.336027e-03	0.0	6.449375e-01	-5.947833e-02	0.0	8.244939e-01	-3.842106e-02	0.0	7.997632e-01	-4.246746e-02	0.0	3.482204e-01	8.660152e-02	0.0	8.478910e-01	-3.434813e-02	0.0	2.468390e-01	7.862192e-02	0.0	8.698983e-01	-3.032503e-02	0.0	1.001408e-02	2.079824e-02	0.0	8.904116e-01	-2.642047e-02	0.0	7.722818e-02	-4.682321e-02	0.0	9.093595e-01	-2.267674e-02	0.0	-1.865007e-03	-3.138557e-03	0.0	9.422484e-01	-1.580904e-02	0.0	9.266631e-01	-1.912583e-02	0.0	1.806769e-02	-2.637803e-02	0.0	4.256782e-01	-6.623083e-02	0.0	8.590773e-01	-3.232303e-02	0.0	9.560748e-01	-1.276843e-02	0.0	9.782290e-01	-7.589010e-03	0.0	9.680882e-01	-1.002215e-02	0.0	1.584746e-01	-5.900398e-02	0.0	9.000881e-01	-2.452666e-02	0.0	7.604299e-01	-4.820093e-02	0.0	9.971132e-01	-2.058079e-03	0.0	5.988429e-01	-6.197001e-02	0.0	4.413590e-01	-6.604490e-02	0.0	5.361230e-01	-6.418097e-02	0.0	4.728882e-01	-6.557080e-02	0.0	5.045102e-01	-6.495629e-02	0.0	4.886866e-01	-6.528085e-02	0.0	1.251652e-01	-5.514410e-02	0.0	2.799454e-02	-3.148915e-02	0.0	3.945492e-01	-6.649285e-02	0.0	4.640172e-02	-3.855324e-02	0.0	4.100682e-01	-6.638196e-02	0.0	3.187978e-01	-6.636792e-02	0.0	3.486567e-01	-6.657206e-02	0.0	3.367005e-02	-3.391128e-02	0.0	2.896281e-01	-6.592628e-02	0.0	9.346743e-01	-1.743395e-02	0.0	1.470184e-01	-5.780948e-02	0.0	1.948400e-01	-6.200962e-02	0.0	8.600599e-02	-4.867547e-02	0.0	1.048018e-01	-5.210645e-02	0.0	5.676108e-01	-6.321237e-02	0.0	1.702734e-01	-6.010386e-02	0.0	6.143295e-01	-6.122907e-02	0.0	8.803501e-01	-2.835590e-02	0.0	2.280418e-02	-2.897635e-02	0.0	9.951875e-01	-2.803889e-03	0.0	6.796488e-03	-1.820110e-02	0.0	1.798544e-02	2.626178e-02	0.0	9.182203e-01	-2.087471e-02	0.0	9.49388
[...]
POINT_DATA 5233

SCALARS Conservative_1 float 1
LOOKUP_TABLE default
4.297450e-01	2.173132e-01	1.784962e-01	1.491563e-01	1.299725e-01	1.152556e-01	1.035181e-01	9.398587e-02	8.615835e-02	7.966393e-02	7.422165e-02	6.963531e-02	6.572224e-02	6.237592e-02	5.948573e-02	5.697652e-02	5.478354e-02	5.273396e-02	5.080748e-02	4.905162e-02	4.763226e-02	4.644002e-02	4.546256e-02	4.467004e-02	4.397954e-02	4.345671e-02	4.298148e-02	4.263723e-02	4.229507e-02	4.200015e-02	4.172063e-02	4.135942e-02	4.103322e-02	4.054473e-02	4.006118e-02	3.942256e-02	3.878183e-02	3.799849e-02	3.723347e-02	3.635190e-02	3.551436e-02	3.459276e-02	3.374158e-02	3.283547e-02	3.201555e-02	3.117141e-02	3.041148e-02	2.966034e-02	2.897587e-02	2.832356e-02	2.772666e-02	2.716251e-02	2.662788e-02	2.615286e-02	2.568259e-02	2.527797e-02	2.486865e-02	2.451136e-02	2.414156e-02	2.381410e-02	2.346613e-02	2.315282e-02	2.280829e-02	2.249137e-02	2.213623e-02	2.179965e-02	2.141930e-02	2.104850e-02	2.063425e-02	2.021048e-02	1.975510e-02	1.926663e-02	1.875866e-02	1.820294e-02	1.762045e-02	1.700068e-02	1.632947e-02	1.562431e-02	1.486504e-02	1.406169e-02	1.319928e-02	1.228318e-02	1.130463e-02	1.026118e-02	9.145949e-03	7.958545e-03	6.690007e-03	5.338545e-03	3.909648e-03	2.388375e-03	8.320699e-04	-6.021062e-04	-2.487668e-03	-4.859924e-03	-1.881132e-03	6.543719e-03	8.027105e-03	2.349662e-03	-4.964458e-03	-1.179513e-02	-1.809797e-02	-3.189266e-02	-5.223987e-02	-6.890093e-02	-8.423756e-02	-1.075478e-01	-1.345936e-01	-1.529523e-01	-1.607071e-01	-1.634800e-01	-1.648824e-01	-1.652955e-01	-1.644036e-01	-1.620106e-01	-1.586184e-01	-1.547759e-01	-1.509465e-01	-1.473782e-01	-1.443378e-01	-1.418033e-01	-1.397335e-01	-1.382173e-01	-1.373002e-01	-1.369713e-01	-1.368543e-01	-1.366381e-01	-1.362196e-01	-1.355994e-01	-1.347963e-01	-1.338428e-01	-1.326115e-01	-1.313398e-01	-1.301325e-01	-1.291718e-01	-1.283408e-01	-1.270109e-01	-1.247277e-01	-1.208913e-01	-1.148488e-01	-1.049189e-01	-9.263291e-02	-8.332109e-02	-8.041774e-02	-8.188484e-02	-8.454745e-02	-8.659749e-02	-8.793044e-02	-8.876852e-02	-8.914723e-02	-8.914295e-02	-8.867235e-02	-8.795612e-02	-8.687831e-02	-8.561465e-02	-8.421310e-02	-8.258427e-02	-8.097799e-02	-7.917955e-02	-7.736733e-02	-7.553571e-02	-7.363660e-02	-7.183587e-02	-6.997000e-02	-6.826491e-02	-6.652435e-02	-6.497680e-02	-6.342279e-02	-6.208250e-02	-6.075718e-02	-5.965763e-02	-5.858836e-02	-5.775957e-02	-5.695223e-02	-5.640718e-02	-5.597188e-02	-5.573311e-02	-5.572647e-02	-5.593771e-02	-5.649636e-02	-5.732684e-02	-5.869315e-02	-6.037602e-02	-6.234083e-02	-6.451235e-02	-6.710184e-02	-7.003872e-02	-7.341978e-02	-7.720185e-02	-8.148830e-02	-8.633653e-02	-9.191448e-02	-9.838669e-02	-1.060350e-01	-1.151640e-01	-1.262459e-01	-1.399082e-01	-1.607119e-01	-1.800562e-01	-3.442265e-01	3.269476e-02	-1.192918e-04	-1.305587e-04	-1.410486e-04	-1.499092e-04	-1.606733e-04	-1.686316e-04	-1.773339e-04	-1.797616e-04	-1.727279e-04	-1.700740e-04	-1.749701e-04	-1.755990e-04	-1.769628e-04	-1.678083e-04	-1.480870e-04	-1.388559e-04	-1.195240e-04	-1.057507e-04	-9.085850e-05	-7.118669e-05	-4.368825e-05	-2.773883e-05	3.308331e-05	1.825744e-04	1.373153e-04	1.619039e-04	2.234912e-04	2.289050e-04	1.400337e-04	1.736529e-04	2.021243e-04	2.165199e-04	2.279721e-04	2.294134e-04	2.280679e-04	2.160299e-04	1.805610e-04	1.493799e-04	9.063355e-05	6.659029e-05	5.468590e-05	3.345273e-05	1.190367e-05	-1.048797e-05	-3.149095e-05	-5.006912e-05	-6.609909e-05	-8.155316e-05	-9.512979e-05	-1.078890e-04	9.902445e-03	3.258465e-02	-7.321595e-02	-6.154723e-02	2.185535e-02	3.361693e-01	2.411696e-01	3.777284e-02	3.410293e-02	-3.244965e-02	3.669557e-02	-7.050996e-02	1.281891e-01	1.122021e-01	-6.927834e-02	3.548720e-02	-1.377421e-02	1.001096e-01	9.065925e-02	3.932445e-03	3.181493e-02	3.992437e-02	3.879876e-02	-7.536499e-02	4.131559e-02	-1.067384e-01	4.314238e-02	-1.142542e-01	4.564577e-02	1.163601e-02	4.914255e-02	-1.994462e-03	5.760060e-02	5.308136e-02	1.579360e-03	2.293383e-02	4.215269e-02	6.353162e-02	8.304530e-02	7.161808e-02	1.654366e-02	4.726943e-02	3.727461e-02	1.833441e-01	2.943092e-02	2.335646e-02	2.657761e-02	2.428100e-02	2.535946e-02	2.480787e-02	1.501853e-02	4.325703e-03	2.218649e-02	7.897528e-03	2.255904e-02	2.063658e-02	2.122370e-02	5.594171e-03	2.006190e-02	5.522033e-02	1.607578e-02	1.779752e-02	1.241102e-02	1.380693e-02	2.794015e-02	1.699350e-02	3.022898e-02	4.428442e-02	2.990048e-03	1.503861e-01	-3.104805e-03	-1.348136e-01	5.110548e-02	6.034325e-02	7.680179e-02	-4.622810e-02	4.055822e-02	1.915985e-02	2.725208e-02	3.613029e-02	3.829288e-02	1.443592e-02	1.851314e-02	2.868832e-02	3.337650e-02	8.933730e-03	-3.575050e-03	2.250227e-04	2.152340e-02	1.740631e-02	4.561037e-01	1.885137e-02	1.313636e-02	2.033896e-02	1.947608e-02	2.379879e-02	3.483551e-02	-2.039914e-02	6.485538e-03	-7.361689e-02	-8.525849e-03	-1.410308e-01	-1.368431e-01	-1.416886e-01	-1.183057e-01	-7.200532e-02	-1.693850e-01	-7.434450e-02	-7.517100e-02	-8.325930e-02	-7.451848e-02	-5.464359e-02	-7.515576e-02	-7.417952e-02	-7.006002e-02	-6.066703e-02	-5.725066e-02	-1.268501e-01	-8.868905e-02	-7.092773e-02	-6.504684e-02	-1.216775e-01	-1.335212e-01	-1.018337e-01	-1.053300e-01	-1.149290e-01	-9.269376e-02	-7.483306e-02	-7.080012e-02	-1.162751e-01	-1.173353e-01	-6.673573e-02	-1.128458e-01	-1.099094e-01	-6.410862e-02	-7.161060e-02	-5.710541e-02	-5.918258e-02	-5.409273e-02	-5.539605e-02	-5.296021e-02	-5.327894e-02	-5.579611e-02	-5.331756e-02	-6.779957e-02	-5.890146e-02	-7.858571e-02	-5.305134e-02	-5.384424e-02	-5.359209e-02	-5.302041e-02	-5.617559e-02	-5.466516e-02	-6.030663e-02	-5.807580e-02	-6.540579e-02	-6.278632e-02	-7.268403e-02	-6.804031e-02	-1.114979e-01	-1.082693e-01	-1.156987e-01	-1.139920e-01	-1.397515e-01	-1.167429e-01	-1.282101e-01	-1.421287e-01	1.817020e-02	-6.951856e-02	6.724426e-02	3.932582e-02	2.091753e-02	2.595481e-02	-5.660451e-02	-1.385851e-01	-9.155509e-02	-1.240254e-01	-1.301008e-01	-1.038702e-01	-1.197541e-01	-9.514495e-02	-1.029571e-01	-9.849930e-02	-1.128033e-01	-1.256483e-01	-8.421268e-02	-7.100271e-02	-6.272345e-02	-3.987859e-01	-2.152166e-01	-2.881344e-01	3.100134e-02	6.784488e-03	-1.433237e-01	-7.489596e-02	1.731240e-03	-1.078404e-03	1.079954e-02	1.556677e-02	1.976300e-02	-1.100995e-01	-2.993974e-02	-2.054005e-02	1.735640e-02	3.039820e-02	4.798860e-02	-1.382326e-03	-5.879721e-02	2.971229e-02	3.449877e-02	1.064489e-01	1.812271e-02	3.928769e-02	3.743825e-02	1.150365e-02	3.800578e-03	1.606050e-02	1.060284e-03	6.397035e-02	1.442531e-02	3.115274e-02	2.824854e-02	2.059738e-02	1.087563e-02	1.922347e-02	4.435709e-02	3.517240e-02	-7.853760e-02	-1.129858e-01	-5.400003e-02	-4.943970e-02	-1.002546e-01	-5.318117e-02	-9.478639e-02	-5.091839e-02	-1.070267e-01	-5.795670e-02	-6.146789e-02	-6.703224e-02	-5.177900e-02	-1.191081e-01	-7.033149e-02	-9.000072e-02	-8.596098e-02	-6.277360e-02	-8.767357e-02	-1.021473e-01	2.894190e-02	1.575969e-02	-9.574575e-02	-9.648284e-02	-1.184664e-01	-7.856704e-02	-1.350158e-01	-5.280092e-02	1.477614e-02	-1.296299e-01	-1.826938e-01	-1.573577e-01	-5.973779e-02	-3.937714e-02	-2.995002e-03	-6.094559e-03	-1.049741e-02	2.314195e-03	1.510948e-01	9.442294e-03	1.966811e-01	1.397932e-01	-6.114732e-02	2.349786e-02	9.519595e-02	4.155115e-02	-5.809824e-02	1.207814e-01	-7.084350e-04	2.020936e-02	-6.086939e-02	3.828730e-02	-7.962764e-02	4.034658e-02	4.287836e-02	1.018698e-02	4.606449e-02	5.009347e-02	5.731044e-02	4.691603e-03	6.038121e-02	6.816310e-02	8.633565e-02	1.358649e-02	3.313674e-02	3.385161e-02	1.660188e-01	2.099692e-02	2.142375e-02	2.190863e-02	3.533137e-03	1.951943e-02	1.987542e-02	1.836517e-02	6.805250e-03	5.226007e-02	5.462466e-02	1.401973e-02	1.209101e-02	2.412473e-02	2.606088e-02	7.312939e-02	7.906850e-02	3.180188e-02	3.252050e-02	1.262326e-02	1.313598e-02	2.472064e-02	2.541502e-02	7.751612e-03	8.632669e-03	-3.165855e-05	1.864914e-02	1.891504e-02	1.513570e-02	1.545604e-02	1.632408e-02	1.660325e-02	1.761864e-02	1.785333e-02	1.685224e-02	-1.419802e-02	-1.221591e-03	-1.200476e-01	-9.753080e-02	-6.095352e-02	-6.175077e-02	-6.203127e-02	-6.207250e-02	-8.375067e-02	-7.415587e-02	-5.751127e-02	-6.188564e-02	-6.148832e-02	-6.032978e-02	-5.568469e-02	-6.412363e-02	-1.132170e-01	-1.160522e-01	-8.424547e-02	-8.226129e-02	-9.566036e-02	-9.747892e-02	-9.872384e-02	-4.925741e-02	-5.063691e-02	-5.123590e-02	-4.953909e-02	-4.926003e-02	-5.410927e-02	-5.029271e-02	-4.978304e-02	-4.911322e-02	-4.918938e-02	-4.978811e-02	-5.022482e-02	-5.179075e-02	-5.251125e-02	-5.475194e-02	-5.561584e-02	-5.964307e-02	-6.036325e-02	-5.643183e-02	-5.724493e-02	-8.935736e-02	-9.090576e-02	-9.240375e-02	-9.368527e-02	-1.065995e-01	-1.203622e-01	-1.193090e-01	3.589851e-02	3.661052e-02	2.240340e-02	2.295591e-02	-4.722475e-02	-1.169603e-01	-1.043678e-01	-1.070414e-01	-6.971662e-02	-7.556135e-02	-5.900704e-02	-5.739048e-02	-6.164654e-02	-5.942399e-02	2.680258e-02	2.748116e-02	5.785557e-03	3.535646e-03	1.712322e-02	-1.162832e-05	1.681478e-02	1.504989e-02	3.172476e-02	2.027441e-02	4.638594e-02	-1.033808e-01	-9.495092e-02	-6.851507e-02	-4.100411e-02	-1.125719e-01	-2.338197e-01	-2.125952e-01	1.512967e-01	5.725173e-03	2.986347e-03	-1.251126e-02	1.048753e-02	4.856343e-02	1.039940e-01	-4.942976e-02	2.558279e-01	-1.528705e-03	2.738361e-02	9.390877e-04	2.808190e-02	1.910351e-03	3.841849e-02	-1.016308e-04	1.576176e-02	3.724227e-02	2.663778e-02	1.149793e-01	8.688470e-04	-8.190000e-02	-5.067288e-02	-6.224484e-02	-4.668011e-02	-1.251296e-01	-5.085355e-02	-6.013881e-02	-4.262308e-02	-7.593527e-02	-9.366621e-02	-2.329575e-01	2.647593e-03	-2.655849e-02	-8.736669e-02	-1.924080e-02	6.332331e-02	1.001164e-02	-8.903823e-03	1.270602e-02	1.812613e-02	4.028411e-03	-6.610827e-02	-4.574970e-02	-4.478841e-02	-4.626261e-02	-8.791125e-02	-6.519088e-02	-4.928516e-02	-4.827145e-02	-4.420723e-02	-5.514047e-02	-6.776709e-02	-8.345124e-02	2.521374e-02	2.594035e-02	1.371347e-02	-7.853325e-02	-7.703481e-02	-7.672912e-02	-1.434999e-01	-5.207788e-02	-3.361604e-02	-1.864191e-03	-4.751525e-03	5.010639e-03	2.291052e-01	2.566560e-01	6.766594e-02	9.404881e-02	-4.886491e-02	1.777361e-02	-5.138524e-02	3.518127e-02	3.613829e-02	3.969328e-02	4.110320e-02	8.884189e-03	9.473646e-03	4.262670e-02	4.442900e-02	5.631159e-02	5.956409e-02	8.574900e-02	3.020139e-02	3.103986e-02	1.299408e-01	1.853750e-02	1.889850e-02	1.708824e-02	1.743898e-02	5.911801e-03	5.091928e-02	5.343816e-02	1.207055e-02	1.239332e-02	2.082407e-02	2.135518e-02	7.271504e-02	7.871502e-02	2.885249e-02	2.957530e-02	1.093225e-02	1.134857e-02	1.174105e-02	2.195958e-02	2.255034e-02	6.755478e-03	7.533063e-03	8.253803e-03	1.598092e-02	1.626743e-02	1.650607e-02	1.296874e-02	1.323147e-02	1.349706e-02	1.396944e-02	1.416347e-02	1.529755e-02	1.550072e-02	1.441213e-02	-9.855258e-02	-5.119700e-02	-5.145696e-02	-7.234577e-02	-5.153077e-02	-5.136875e-02	-5.130928e-02	-5.140528e-02	-5.348836e-02	-9.588540e-02	-9.754638e-02	-6.369625e-02	-6.601616e-02	-7.836147e-02	-7.989179e-02	-8.151341e-02	-4.508086e-02	-5.188195e-02	-5.041710e-02	-4.747767e-02	-4.673014e-02	-4.618282e-02	-4.524547e-02	-4.513214e-02	-4.495351e-02	-4.481105e-02	-4.481127e-02	-4.494563e-02	-4.533530e-02	-4.558001e-02	-4.592383e-02	-4.708925e-02	-4.998489e-02	-5.031302e-02	-4.755805e-02	-4.798263e-02	-4.851151e-02	-6.913748e-02	-7.048039e-02	-7.193943e-02	-7.341687e-02	-7.479138e-02	-9.873038e-02	-9.802422e-02	3.256992e-02	3.340513e-02	3.422684e-02	1.930599e-02	1.982262e-02	-9.631451e-02	-9.306189e-02	-8.564377e-02	-8.821741e-02	-9.099287e-02	-4.919073e-02	-5.065882e-02	-4.837181e-02	-4.511209e-02	-5.970311e-02	-5.739110e-02	-5.538342e-02	2.320656e-02	2.384406e-02	2.453944e-02	1.461387e-02	1.485777e-02	-4.546308e-04	9.444592e-03	-1.095938e-01	-7.788526e-02	1.841980e-02	-1.301568e-02	1.588753e-01	4.468203e-02	4.693160e-02	5.282870e-03	-9.506391e-02	-4.347281e-02	8.829352e-04	-6.403562e-02	-1.949027e-06	-6.272807e-02	-1.011537e-01	-2.445079e-02	-4.175345e-02	-3.015220e-02	-9.189385e-02	1.014904e-01	2.991676e-02	1.110108e-02	3.632083e-03	1.479706e-02	9.110874e-03	1.573657e-02	1.305892e-02	-8.294928e-02	-4.290496e-02	-5.991927e-02	-5.745215e-02	-4.111099e-02	-6.004224e-02	-4.440943e-02	8.845060e-02	-7.756999e-02	3.554371e-02	-1.493110e-01	-8.868638e-02	1.130453e-01	6.554959e-02	2.747313e-03	2.460564e-02	-8.871496e-04	2.510213e-02	2.610571e-02	1.828023e-03	9.601066e-02	1.001789e-03	-4.262707e-02	-4.384642e-02	-3.057985e-02	-1.868482e-02	-5.502779e-02	-4.112864e-02	-4.594774e-02	-3.162858e-02	-3.363666e-02	-3.896972e-02	2.320477e-02	2.367112e-02	-7.334116e-02	-4.519564e-02	-3.661254e-02	-1.637854e-04	-3.501864e-03	4.505641e-03	6.149237e-02	8.156384e-02	-4.241481e-02	3.340187e-02	3.436131e-02	3.671752e-02	3.803758e-02	8.280906e-03	8.715681e-03	3.939554e-02	4.097599e-02	4.281484e-02	5.470026e-02	5.788709e-02	2.829743e-02	2.889014e-02	1.033341e-01	1.615853e-02	1.658557e-02	1.503082e-02	1.542784e-02	4.932530e-02	5.183787e-02	1.062061e-02	1.079298e-02	1.872667e-02	7.019779e-02	7.554780e-02	2.669169e-02	2.734746e-02	9.782588e-03	1.004450e-02	1.039857e-02	1.945926e-02	1.981679e-02	5.994335e-03	6.656375e-03	7.279710e-03	7.819490e-03	1.369996e-02	1.396461e-02	1.420128e-02	1.449686e-02	1.124178e-02	1.149349e-02	1.165512e-02	1.188094e-02	1.203891e-02	1.348855e-02	1.324821e-02	1.225717e-02	-4.381963e-02	-6.936596e-02	-6.585428e-02	-4.396367e-02	-4.387678e-02	-4.381760e-02	-4.386245e-02	-4.398536e-02	-7.838827e-02	-7.865525e-02	-4.829785e-02	-5.110933e-02	-6.144864e-02	-6.326118e-02	-6.489996e-02	-6.684029e-02	-4.955584e-02	-4.816343e-02	-4.692805e-02	-4.501754e-02	-4.425125e-02	-4.350889e-02	-4.304402e-02	-4.194064e-02	-4.179182e-02	-4.166816e-02	-4.127714e-02	-4.084265e-02	-4.114332e-02	-4.077352e-02	-4.119433e-02	-4.087506e-02	-4.140505e-02	-4.315377e-02	-4.363256e-02	-4.150087e-02	-4.221043e-02	-4.198026e-02	-4.270993e-02	-5.248936e-02	-5.367203e-02	-5.463333e-02	-5.603602e-02	-5.738968e-02	-5.872115e-02	-7.863391e-02	-7.845865e-02	3.062083e-02	3.143469e-02	3.241354e-02	1.685256e-02	1.749619e-02	1.776172e-02	-7.768974e-02	-7.542789e-02	-7.094437e-02	-6.907748e-02	-7.164416e-02	-7.412824e-02	-7.614384e-02	-4.386769e-02	-4.259972e-02	-3.998909e-02	-3.569840e-02	-5.123208e-02	-5.515111e-02	-5.318847e-02	2.061240e-02	2.101499e-02	2.186493e-02	2.230506e-02	1.243385e-02	1.265984e-02	1.283243e-02	2.727228e-03	-9.594532e-02	5.879568e-02	-1.605687e-01	1.995831e-03	2.391143e-02	8.514086e-03	1.221914e-03	-6.910109e-02	2.498807e-04	4.886827e-03	9.690055e-03	-4.825624e-02	-4.541450e-02	-2.724684e-02	-1.336219e-02	-8.767837e-03	-7.295788e-03	-8.928210e-03	7.364876e-06	9.771064e-02	-2.438289e-02	6.237379e-02	8.069404e-02	4.540134e-02	2.791291e-02	1.312795e-02	-8.518050e-02	-4.799878e-02	-5.296113e-02	-3.849686e-02	-3.851609e-02	-3.750855e-02	-3.812580e-02	-3.825605e-02	1.648282e-02	-2.946959e-02	-8.110715e-02	8.256314e-03	-1.711941e-01	-7.274069e-02	-6.541109e-03	1.732775e-01	1.849673e-01	4.356832e-02	5.460313e-03	-1.346479e-03	-5.179224e-02	4.669684e-04	-5.737296e-02	-2.264073e-02	-3.386837e-02	3.457268e-02	3.479237e-03	1.179392e-02	1.144297e-02	-7.657505e-02	-3.776326e-02	-5.511186e-02	7.526478e-02	2.240192e-02	-1.807510e-02	-2.172532e-02	-2.296673e-02	-2.839800e-02	2.102517e-02	-3.865676e-02	-3.248145e-02	-3.415692e-03	4.198643e-03	3.207914e-02	3.326934e-02	3.426537e-02	3.565694e-02	7.971618e-03	7.681843e-03	3.676759e-02	3.831858e-02	3.964047e-02	4.135751e-02	5.262563e-02	5.556684e-02	2.622139e-02	8.548100e-02	1.427683e-02	1.454824e-02	1.357467e-02	1.374141e-02	4.758103e-02	4.995868e-02	9.299576e-03	9.613508e-03	6.633961e-02	7.066570e-02	2.486730e-02	8.673000e-03	9.035383e-03	9.249856e-03	1.745434e-02	5.983615e-03	6.501109e-03	6.944159e-03	7.358679e-03	1.185771e-02	1.222978e-02	1.231223e-02	1.273427e-02	1.291684e-02	9.979603e-03	1.001755e-02	1.031355e-02	1.034387e-02	1.064570e-02	-6.574821e-02	-6.268524e-02	-5.991879e-02	-3.900752e-02	-3.850561e-02	-3.892748e-02	-3.844627e-02	-3.898117e-02	-6.181015e-02	-6.125359e-02	-3.222534e-02	-3.805724e-02	-5.109675e-02	-5.192513e-02	-5.370618e-02	-4.633236e-02	-4.532606e-02	-4.413160e-02	-4.342114e-02	-4.236750e-02	-4.176784e-02	-4.092510e-02	-4.019767e-02	-3.922301e-02	-3.883878e-02	-3.772307e-02	-3.750136e-02	-3.744092e-02	-3.770446e-02	-3.790643e-02	-3.952225e-02	-4.226624e-02	-4.213400e-02	-4.401872e-02	-4.419003e-02	-4.523899e-02	-4.671780e-02	-6.101897e-02	-6.137519e-02	2.909166e-02	3.021665e-02	3.106462e-02	1.488095e-02	1.559740e-02	-6.157079e-02	-6.024201e-02	-5.686174e-02	-5.587434e-02	-5.822335e-02	-6.030553e-02	-6.152008e-02	-6.184229e-02	-3.853002e-02	-3.861054e-02	-3.676988e-02	-3.377070e-02	-5.106100e-02	-4.946104e-02	1.854939e-02	1.974176e-02	1.069272e-02	1.102227e-02	1.106235e-02	1.139025e-02	1.872450e-01	-1.738578e-01	2.262215e-03	-9.644210e-03	8.392127e-02	5.806042e-02	-6.971463e-02	-1.748292e-02	-5.436510e-02	9.604943e-02	6.433283e-02	-4.125212e-03	5.157212e-03	2.916754e-03	-2.684529e-02	-8.268456e-02	-3.282944e-02	-2.099644e-02	3.515635e-03	5.517887e-02	1.417075e-02	-6.658629e-02	1.033761e-02	4.360582e-02	4.113455e-02	1.710898e-02	7.637847e-03	8.704559e-03	4.175196e-04	1.201880e-02	7.315278e-03	7.521712e-03	-4.252410e-02	-6.128664e-02	-4.557332e-02	-1.393514e-02	-3.735880e-02	5.245912e-02	-1.590505e-01	-6.381614e-02	-7.819147e-03	-2.042351e-03	6.803707e-02	2.229719e-02	-3.398945e-02	-3.463440e-02	-7.335374e-02	-1.474605e-03	-9.448771e-02	-5.450571e-03	1.727868e-01	5.541379e-03	1.431052e-03	1.723385e-03	-3.395885e-02	4.656978e-03	-5.244336e-02	-5.071965e-02	-3.399378e-02	-1.859319e-02	-1.876594e-02	2.099930e-02	-2.855180e-02	-2.460788e-02	4.098648e-03	3.151283e-02	3.388102e-02	7.082606e-03	3.645984e-02	3.844617e-02	4.993750e-02	7.229905e-02	1.266949e-02	4.550807e-02	4.762742e-02	8.409302e-03	6.105158e-02	2.342521e-02	2.491944e-02	7.997785e-03	8.183532e-03	1.503331e-02	5.932086e-03	6.250186e-03	6.623858e-03	6.894971e-03	1.074268e-02	1.124870e-02	1.152352e-02	8.976393e-03	9.273617e-03	-5.882032e-02	-5.651120e-02	-3.472178e-02	-3.481234e-02	-4.736631e-02	-2.636882e-02	-4.448476e-02	-3.631883e-02	-4.318814e-02	-4.123896e-02	-3.955150e-02	-3.807968e-02	-3.706585e-02	-3.550301e-02	-3.477136e-02	-3.426457e-02	-3.393671e-02	-3.374504e-02	-3.368389e-02	-3.368528e-02	-3.370516e-02	-3.248705e-02	-3.514485e-02	-3.569492e-02	-3.771088e-02	-3.876496e-02	-4.681946e-02	-4.763853e-02	2.651634e-02	2.836137e-02	2.970833e-02	1.305766e-02	1.344849e-02	-4.848185e-02	-4.784994e-02	-4.529752e-02	-4.166393e-02	-4.649465e-02	-4.832089e-02	-4.969866e-02	-4.998755e-02	-4.914286e-02	-4.978787e-02	-3.433848e-02	-3.205495e-02	-4.938454e-02	-4.750453e-02	1.602207e-02	1.829439e-02	1.958981e-02	9.613771e-03	9.962050e-03	-7.480081e-02	1.543879e-01	1.527079e-01	-1.031470e-01	6.135426e-03	-6.466458e-02	-4.344499e-02	8.531876e-02	2.723767e-03	4.162356e-03	1.059309e-01	7.400630e-02	-2.489306e-02	-1.412039e-02	-5.121326e-03	-5.248471e-02	2.117602e-02	-2.726406e-02	-8.498060e-02	3.524517e-02	4.978415e-03	-3.836792e-02	-2.777894e-02	3.162242e-03	1.045644e-02	4.148352e-02	1.636178e-02	1.338838e-02	5.070564e-02	5.294574e-02	5.300388e-03	5.584666e-03	-1.178654e-01	-5.844657e-02	-6.075642e-02	-4.929434e-02	-1.345853e-02	-3.100774e-02	1.880406e-02	6.553263e-03	-1.437975e-01	-1.447962e-01	-7.587921e-03	4.854642e-02	-5.082884e-02	4.150952e-02	5.540389e-02	-1.669597e-02	3.716468e-03	1.261124e-02	-1.850216e-03	6.663904e-03	6.756442e-03	-5.628958e-02	-1.065637e-02	4.658578e-02	5.803895e-02	2.004283e-02	-5.517228e-03	1.230270e-01	6.365336e-03	1.695550e-03	2.659764e-03	-3.105372e-02	4.580644e-03	-4.795301e-02	-3.107142e-02	-2.079165e-02	-3.104002e-02	-2.204522e-02	-1.934560e-02	3.042281e-02	3.289828e-02	3.744635e-02	3.977069e-02	6.245771e-02	1.100074e-02	4.306693e-02	4.474842e-02	1.008020e-02	2.538542e-02	2.692340e-02	2.240318e-02	6.822578e-03	7.050713e-03	7.137220e-03	5.822876e-03	9.152308e-03	9.613946e-03	7.291115e-03	7.506199e-03	1.753575e-02	-5.433654e-02	-3.108763e-02	-3.113584e-02	-3.767589e-02	-4.167660e-02	-3.955971e-02	-3.429066e-02	-3.769385e-02	-3.620777e-02	-3.511307e-02	-3.357350e-02	-3.287308e-02	-3.226742e-02	-3.182047e-02	-3.150414e-02	-3.128187e-02	-3.114591e-02	-1.317076e-02	-1.936253e-02	-2.502164e-02	-2.810145