# vtk DataFile Version 3.0
vtk output
ASCII
DATASET UNSTRUCTURED_GRID
POINTS 5233 float
9.997500e-01	-3.632909e-05	0.0	9.990000e-01	-1.452618e-04	0.0	9.977600e-01	-3.252008e-04	0.0	9.960200e-01	-5.774943e-04	0.0	9.937800e-01	-9.022942e-04	0.0	9.910500e-01	-1.298763e-03	0.0	9.878400e-01	-1.766726e-03	0.0	9.841300e-01	-2.311194e-03	0.0	9.799500e-01	-2.930640e-03	0.0	9.752800e-01	-3.631444e-03	0.0	9.701500e-01	-4.412625e-03	0.0	9.645400e-01	-5.280292e-03	0.0	9.584700e-01	-6.233365e-03	0.0	9.519400e-01	-7.272227e-03	0.0	9.449600e-01	-8.393908e-03	0.0	9.375400e-01	-9.593773e-03	0.0	9.296900e-01	-1.086609e-02	0.0	9.214000e-01	-1.220804e-02	0.0	9.127000e-01	-1.361074e-02	0.0	9.035800e-01	-1.507272e-02	0.0	8.940600e-01	-1.658877e-02	0.0	8.841500e-01	-1.815610e-02	0.0	8.738500e-01	-1.977361e-02	0.0	8.631800e-01	-2.143627e-02	0.0	8.521600e-01	-2.313752e-02	0.0	8.407700e-01	-2.487471e-02	0.0	8.290500e-01	-2.663345e-02	0.0	8.170100e-01	-2.840162e-02	0.0	8.046400e-01	-3.016792e-02	0.0	7.919700e-01	-3.191393e-02	0.0	7.790100e-01	-3.362378e-02	0.0	7.657800e-01	-3.528073e-02	0.0	7.522800e-01	-3.687177e-02	0.0	7.385200e-01	-3.838440e-02	0.0	7.245300e-01	-3.980643e-02	0.0	7.103200e-01	-4.113073e-02	0.0	6.958900e-01	-4.235375e-02	0.0	6.812700e-01	-4.347212e-02	0.0	6.664700e-01	-4.448693e-02	0.0	6.515000e-01	-4.540154e-02	0.0	6.363800e-01	-4.622067e-02	0.0	6.211300e-01	-4.695082e-02	0.0	6.057600e-01	-4.760016e-02	0.0	5.902800e-01	-4.817747e-02	0.0	5.747100e-01	-4.869148e-02	0.0	5.590600e-01	-4.915119e-02	0.0	5.433600e-01	-4.956464e-02	0.0	5.276100e-01	-4.993996e-02	0.0	5.118400e-01	-5.028359e-02	0.0	4.960500e-01	-5.060149e-02	0.0	4.802700e-01	-5.089775e-02	0.0	4.645100e-01	-5.117554e-02	0.0	4.487800e-01	-5.143670e-02	0.0	4.331100e-01	-5.168146e-02	0.0	4.175000e-01	-5.190932e-02	0.0	4.019700e-01	-5.211839e-02	0.0	3.865400e-01	-5.230586e-02	0.0	3.712300e-01	-5.246816e-02	0.0	3.560400e-01	-5.260130e-02	0.0	3.409900e-01	-5.270061e-02	0.0	3.261100e-01	-5.276113e-02	0.0	3.114000e-01	-5.277790e-02	0.0	2.968700e-01	-5.274582e-02	0.0	2.825500e-01	-5.265996e-02	0.0	2.684500e-01	-5.251559e-02	0.0	2.545700e-01	-5.230801e-02	0.0	2.409400e-01	-5.203324e-02	0.0	2.275700e-01	-5.168749e-02	0.0	2.144700e-01	-5.126729e-02	0.0	2.016600e-01	-5.076993e-02	0.0	1.891400e-01	-5.019238e-02	0.0	1.769300e-01	-4.953284e-02	0.0	1.650400e-01	-4.878952e-02	0.0	1.534900e-01	-4.796177e-02	0.0	1.422900e-01	-4.704883e-02	0.0	1.314400e-01	-4.604934e-02	0.0	1.209500e-01	-4.496296e-02	0.0	1.108500e-01	-4.379208e-02	0.0	1.011300e-01	-4.253503e-02	0.0	9.181000e-02	-4.119389e-02	0.0	8.290000e-02	-3.976997e-02	0.0	7.440000e-02	-3.826304e-02	0.0	6.633000e-02	-3.667657e-02	0.0	5.869000e-02	-3.501058e-02	0.0	5.149000e-02	-3.326708e-02	0.0	4.474000e-02	-3.144844e-02	0.0	3.844000e-02	-2.955433e-02	0.0	3.260000e-02	-2.758711e-02	0.0	2.723000e-02	-2.554977e-02	0.0	2.232000e-02	-2.343708e-02	0.0	1.790000e-02	-2.126113e-02	0.0	1.395000e-02	-1.901092e-02	0.0	1.049000e-02	-1.669561e-02	0.0	7.520000e-03	-1.431461e-02	0.0	5.040000e-03	-1.186637e-02	0.0	3.050000e-03	-9.347302e-03	0.0	1.560000e-03	-6.769269e-03	0.0	5.600000e-04	-4.108233e-03	0.0	6.000000e-05	-1.363608e-03	0.0	0.000000e+00	0.000000e+00	0.0	6.000000e-05	1.350236e-03	0.0	5.600000e-04	4.050826e-03	0.0	1.560000e-03	6.663226e-03	0.0	3.050000e-03	9.195473e-03	0.0	5.040000e-03	1.167583e-02	0.0	7.520000e-03	1.409653e-02	0.0	1.049000e-02	1.646478e-02	0.0	1.395000e-02	1.878581e-02	0.0	1.790000e-02	2.106403e-02	0.0	2.232000e-02	2.329392e-02	0.0	2.723000e-02	2.549065e-02	0.0	3.260000e-02	2.764558e-02	0.0	3.844000e-02	2.976800e-02	0.0	4.474000e-02	3.185849e-02	0.0	5.149000e-02	3.391797e-02	0.0	5.869000e-02	3.595015e-02	0.0	6.633000e-02	3.795531e-02	0.0	7.440000e-02	3.993367e-02	0.0	8.290000e-02	4.188739e-02	0.0	9.181000e-02	4.381361e-02	0.0	1.011300e-01	4.571359e-02	0.0	1.108500e-01	4.758588e-02	0.0	1.209500e-01	4.942683e-02	0.0	1.314400e-01	5.123782e-02	0.0	1.422900e-01	5.301272e-02	0.0	1.534900e-01	5.474871e-02	0.0	1.650400e-01	5.644398e-02	0.0	1.769300e-01	5.809472e-02	0.0	1.891400e-01	5.969553e-02	0.0	2.016600e-01	6.124223e-02	0.0	2.144700e-01	6.272926e-02	0.0	2.275700e-01	6.415328e-02	0.0	2.409400e-01	6.550849e-02	0.0	2.545700e-01	6.679020e-02	0.0	2.684500e-01	6.799357e-02	0.0	2.825500e-01	6.911218e-02	0.0	2.968700e-01	7.014214e-02	0.0	3.114000e-01	7.107860e-02	0.0	3.261100e-01	7.191555e-02	0.0	3.409900e-01	7.264840e-02	0.0	3.560400e-01	7.327286e-02	0.0	3.712300e-01	7.378330e-02	0.0	3.865400e-01	7.417483e-02	0.0	4.019700e-01	7.444303e-02	0.0	4.175000e-01	7.458295e-02	0.0	4.331100e-01	7.458992e-02	0.0	4.487800e-01	7.445955e-02	0.0	4.645100e-01	7.418745e-02	0.0	4.802700e-01	7.376991e-02	0.0	4.960500e-01	7.320341e-02	0.0	5.118400e-01	7.248482e-02	0.0	5.276100e-01	7.161270e-02	0.0	5.433600e-01	7.058503e-02	0.0	5.590600e-01	6.940265e-02	0.0	5.747100e-01	6.806549e-02	0.0	5.902800e-01	6.657731e-02	0.0	6.057600e-01	6.494175e-02	0.0	6.211300e-01	6.316504e-02	0.0	6.363800e-01	6.125402e-02	0.0	6.515000e-01	5.921698e-02	0.0	6.664700e-01	5.706516e-02	0.0	6.812700e-01	5.481151e-02	0.0	6.958900e-01	5.246892e-02	0.0	7.103200e-01	5.005129e-02	0.0	7.245300e-01	4.757686e-02	0.0	7.385200e-01	4.505941e-02	0.0	7.522800e-01	4.251466e-02	0.0	7.657800e-01	3.996213e-02	0.0	7.790100e-01	3.741749e-02	0.0	7.919700e-01	3.489399e-02	0.0	8.046400e-01	3.240819e-02	0.0	8.170100e-01	2.997405e-02	0.0	8.290500e-01	2.760884e-02	0.0	8.407700e-01	2.532127e-02	0.0	8.521600e-01	2.312328e-02	0.0	8.631800e-01	2.103157e-02	0.0	8.738500e-01	1.905016e-02	0.0	8.841500e-01	1.718895e-02	0.0	8.940600e-01	1.545535e-02	0.0	9.035800e-01	1.385019e-02	0.0	9.127000e-01	1.237271e-02	0.0	9.214000e-01	1.102010e-02	0.0	9.296900e-01	9.781662e-03	0.0	9.375400e-01	8.650401e-03	0.0	9.449600e-01	7.612208e-03	0.0	9.519400e-01	6.656126e-03	0.0	9.584700e-01	5.772587e-03	0.0	9.645400e-01	4.954359e-03	0.0	9.701500e-01	4.195689e-03	0.0	9.752800e-01	3.496291e-03	0.0	9.799500e-01	2.852720e-03	0.0	9.841300e-01	2.270023e-03	0.0	9.878400e-01	1.747228e-03	0.0	9.910500e-01	1.290667e-03	0.0	9.937800e-01	8.994899e-04	0.0	9.960200e-01	5.767420e-04	0.0	9.977600e-01	3.250644e-04	0.0	9.990000e-01	1.452495e-04	0.0	9.997500e-01	3.632890e-05	0.0	1.000000e+00	0.000000e+00	0.0	1.984229e+01	2.506660e+00	0.0	1.937166e+01	4.973800e+00	0.0	1.859553e+01	7.362490e+00	0.0	1.752613e+01	9.635070e+00	0.0	1.618034e+01	1.175571e+01	0.0	1.457937e+01	1.369094e+01	0.0	1.274848e+01	1.541027e+01	0.0	1.071654e+01	1.688656e+01	0.0	8.515590e+00	1.809654e+01	0.0	6.180340e+00	1.902113e+01	0.0	3.747630e+00	1.964575e+01	0.0	1.255810e+00	1.996053e+01	0.0	-1.255810e+00	1.996053e+01	0.0	-3.747630e+00	1.964574e+01	0.0	-6.180340e+00	1.902113e+01	0.0	-8.515590e+00	1.809654e+01	0.0	-1.071654e+01	1.688656e+01	0.0	-1.274848e+01	1.541026e+01	0.0	-1.457937e+01	1.369094e+01	0.0	-1.618034e+01	1.175570e+01	0.0	-1.752613e+01	9.635070e+00	0.0	-1.859553e+01	7.362490e+00	0.0	-1.937166e+01	4.973800e+00	0.0	-1.984229e+01	2.506660e+00	0.0	-2.000000e+01	0.000000e+00	0.0	-1.984229e+01	-2.506670e+00	0.0	-1.937166e+01	-4.973800e+00	0.0	-1.859553e+01	-7.362490e+00	0.0	-1.752613e+01	-9.635080e+00	0.0	-1.618034e+01	-1.175571e+01	0.0	-1.457937e+01	-1.369094e+01	0.0	-1.274848e+01	-1.541027e+01	0.0	-1.071653e+01	-1.688656e+01	0.0	-8.515580e+00	-1.809654e+01	0.0	-6.180340e+00	-1.902113e+01	0.0	-3.747620e+00	-1.964575e+01	0.0	-1.255810e+00	-1.996053e+01	0.0	1.255810e+00	-1.996053e+01	0.0	3.747630e+00	-1.964574e+01	0.0	6.180340e+00	-1.902113e+01	0.0	8.515590e+00	-1.809654e+01	0.0	1.071654e+01	-1.688656e+01	0.0	1.274848e+01	-1.541026e+01	0.0	1.457937e+01	-1.369094e+01	0.0	1.618034e+01	-1.175570e+01	0.0	1.752614e+01	-9.635070e+00	0.0	1.859553e+01	-7.362490e+00	0.0	1.937166e+01	-4.973790e+00	0.0	1.984229e+01	-2.506660e+00	0.0	2.000000e+01	0.000000e+00	0.0	6.093892e-02	-4.285144e-02	0.0	6.600410e-01	-5.844939e-02	0.0	4.255297e-01	8.863687e-02	0.0	6.904536e-01	6.677179e-02	0.0	3.791252e-01	-6.656260e-02	0.0	9.994589e-01	-7.258723e-04	0.0	9.985402e-01	-1.320872e-03	0.0	7.738251e-01	-4.634860e-02	0.0	6.897588e-01	-5.606349e-02	0.0	-1.367138e-03	6.233161e-03	0.0	7.467650e-01	-4.997311e-02	0.0	5.838090e-01	8.122916e-02	0.0	9.927651e-01	-3.598793e-03	0.0	9.898616e-01	-4.480982e-03	0.0	5.994275e-01	7.958836e-02	0.0	7.187102e-01	-5.322760e-02	0.0	-1.548094e-03	7.305687e-04	0.0	9.864673e-01	-5.441292e-03	0.0	9.825916e-01	-6.470515e-03	0.0	-1.358171e-03	-6.336027e-03	0.0	6.449375e-01	-5.947833e-02	0.0	8.244939e-01	-3.842106e-02	0.0	7.997632e-01	-4.246746e-02	0.0	3.482204e-01	8.660152e-02	0.0	8.478910e-01	-3.434813e-02	0.0	2.468390e-01	7.862192e-02	0.0	8.698983e-01	-3.032503e-02	0.0	1.001408e-02	2.079824e-02	0.0	8.904116e-01	-2.642047e-02	0.0	7.722818e-02	-4.682321e-02	0.0	9.093595e-01	-2.267674e-02	0.0	-1.865007e-03	-3.138557e-03	0.0	9.422484e-01	-1.580904e-02	0.0	9.266631e-01	-1.912583e-02	0.0	1.806769e-02	-2.637803e-02	0.0	4.256782e-01	-6.623083e-02	0.0	8.590773e-01	-3.232303e-02	0.0	9.560748e-01	-1.276843e-02	0.0	9.782290e-01	-7.589010e-03	0.0	9.680882e-01	-1.002215e-02	0.0	1.584746e-01	-5.900398e-02	0.0	9.000881e-01	-2.452666e-02	0.0	7.604299e-01	-4.820093e-02	0.0	9.971132e-01	-2.058079e-03	0.0	5.988429e-01	-6.197001e-02	0.0	4.413590e-01	-6.604490e-02	0.0	5.361230e-01	-6.418097e-02	0.0	4.728882e-01	-6.557080e-02	0.0	5.045102e-01	-6.495629e-02	0.0	4.886866e-01	-6.528085e-02	0.0	1.251652e-01	-5.514410e-02	0.0	2.799454e-02	-3.148915e-02	0.0	3.945492e-01	-6.649285e-02	0.0	4.640172e-02	-3.855324e-02	0.0	4.100682e-01	-6.638196e-02	0.0	3.187978e-01	-6.636792e-02	0.0	3.486567e-01	-6.657206e-02	0.0	3.367005e-02	-3.391128e-02	0.0	2.896281e-01	-6.592628e-02	0.0	9.346743e-01	-1.743395e-02	0.0	1.470184e-01	-5.780948e-02	0.0	1.948400e-01	-6.200962e-02	0.0	8.600599e-02	-4.867547e-02	0.0	1.048018e-01	-5.210645e-02	0.0	5.676108e-01	-6.321237e-02	0.0	1.702734e-01	-6.010386e-02	0.0	6.143295e-01	-6.122907e-02	0.0	8.803501e-01	-2.835590e-02	0.0	2.280418e-02	-2.897635e-02	0.0	9.951875e-01	-2.803889e-03	0.0	6.796488e-03	-1.820110e-02	0.0	1.798544e-02	2.626178e-02	0.0	9.182203e-01	-2.087471e-02	0.0	9.49388
[...]
POINT_DATA 5233

SCALARS Conservative_1 float 1
LOOKUP_TABLE default
4.326707e-01	2.189195e-01	1.794240e-01	1.498334e-01	1.304917e-01	1.156800e-01	1.038732e-01	9.429143e-02	8.642540e-02	7.990205e-02	7.443650e-02	6.983214e-02	6.590431e-02	6.254641e-02	5.964657e-02	5.712980e-02	5.493066e-02	5.287617e-02	5.094513e-02	4.918591e-02	4.776526e-02	4.657326e-02	4.559723e-02	4.480653e-02	4.411852e-02	4.359840e-02	4.312656e-02	4.278568e-02	4.244752e-02	4.215636e-02	4.188105e-02	4.152278e-02	4.119962e-02	4.071322e-02	4.023091e-02	3.959271e-02	3.895128e-02	3.816600e-02	3.739848e-02	3.651398e-02	3.567294e-02	3.474782e-02	3.389309e-02	3.298343e-02	3.216025e-02	3.131306e-02	3.055024e-02	2.979680e-02	2.911019e-02	2.845613e-02	2.785785e-02	2.729277e-02	2.675754e-02	2.628226e-02	2.581176e-02	2.540711e-02	2.499794e-02	2.464104e-02	2.427181e-02	2.394473e-02	2.359734e-02	2.328491e-02	2.294129e-02	2.262520e-02	2.227080e-02	2.193480e-02	2.155494e-02	2.118486e-02	2.077091e-02	2.034727e-02	1.989190e-02	1.940347e-02	1.889525e-02	1.833925e-02	1.775605e-02	1.713583e-02	1.646365e-02	1.575778e-02	1.499711e-02	1.419269e-02	1.332846e-02	1.241083e-02	1.143002e-02	1.038474e-02	9.266709e-03	8.076906e-03	6.804692e-03	5.449966e-03	4.016030e-03	2.490466e-03	9.243314e-04	-5.194453e-04	-2.386663e-03	-4.800813e-03	-2.009192e-03	6.423967e-03	8.107897e-03	2.471500e-03	-4.840475e-03	-1.163415e-02	-1.792610e-02	-3.166685e-02	-5.211435e-02	-6.889070e-02	-8.365071e-02	-1.060906e-01	-1.331851e-01	-1.523493e-01	-1.608476e-01	-1.639848e-01	-1.655763e-01	-1.662204e-01	-1.656972e-01	-1.637077e-01	-1.605893e-01	-1.568042e-01	-1.528327e-01	-1.490073e-01	-1.456519e-01	-1.428463e-01	-1.405545e-01	-1.388820e-01	-1.378699e-01	-1.374775e-01	-1.373421e-01	-1.371707e-01	-1.368866e-01	-1.365306e-01	-1.361514e-01	-1.357562e-01	-1.351235e-01	-1.343328e-01	-1.333549e-01	-1.323921e-01	-1.316536e-01	-1.309849e-01	-1.300891e-01	-1.281088e-01	-1.247279e-01	-1.191942e-01	-1.103231e-01	-9.796425e-02	-8.628246e-02	-8.065877e-02	-8.098385e-02	-8.349621e-02	-8.570611e-02	-8.709890e-02	-8.786073e-02	-8.825140e-02	-8.815732e-02	-8.772934e-02	-8.684268e-02	-8.570413e-02	-8.438506e-02	-8.281283e-02	-8.124447e-02	-7.947230e-02	-7.767444e-02	-7.584787e-02	-7.394391e-02	-7.213537e-02	-7.025928e-02	-6.854464e-02	-6.679068e-02	-6.522932e-02	-6.366009e-02	-6.230622e-02	-6.096615e-02	-5.985271e-02	-5.876841e-02	-5.792592e-02	-5.710417e-02	-5.654594e-02	-5.609655e-02	-5.584443e-02	-5.582390e-02	-5.602190e-02	-5.656653e-02	-5.738222e-02	-5.873270e-02	-6.039963e-02	-6.234770e-02	-6.450155e-02	-6.707204e-02	-6.998788e-02	-7.334581e-02	-7.710167e-02	-8.135889e-02	-8.617284e-02	-9.171130e-02	-9.813530e-02	-1.057254e-01	-1.147793e-01	-1.257642e-01	-1.392834e-01	-1.598682e-01	-1.787774e-01	-3.416080e-01	3.474395e-02	-1.194927e-04	-1.305758e-04	-1.409093e-04	-1.496621e-04	-1.603361e-04	-1.682728e-04	-1.769943e-04	-1.795193e-04	-1.726741e-04	-1.702264e-04	-1.753317e-04	-1.761216e-04	-1.777309e-04	-1.685487e-04	-1.486644e-04	-1.392532e-04	-1.198463e-04	-1.059882e-04	-9.092489e-05	-7.124510e-05	-4.380364e-05	-2.773993e-05	3.358414e-05	1.826656e-04	1.337511e-04	1.581339e-04	2.226617e-04	2.291267e-04	1.396646e-04	1.731371e-04	2.015152e-04	2.161366e-04	2.277461e-04	2.294040e-04	2.282327e-04	2.162495e-04	1.807924e-04	1.493803e-04	9.028510e-05	6.589345e-05	5.367629e-05	3.219145e-05	1.051937e-05	-1.189763e-05	-3.280963e-05	-5.126418e-05	-6.714503e-05	-8.238825e-05	-9.575147e-05	-1.083040e-04	1.001070e-02	3.270161e-02	-7.142954e-02	-6.180200e-02	2.194737e-02	3.378555e-01	2.422454e-01	3.789606e-02	3.422489e-02	-3.226754e-02	3.682045e-02	-7.072142e-02	1.286357e-01	1.125713e-01	-6.951921e-02	3.561183e-02	-1.363357e-02	1.004231e-01	9.093104e-02	4.035758e-03	3.192910e-02	4.004186e-02	3.891907e-02	-8.811358e-02	4.143190e-02	-1.097278e-01	4.325913e-02	-1.132062e-01	4.576548e-02	1.174559e-02	4.927084e-02	-1.886940e-03	5.775059e-02	5.321928e-02	1.669812e-03	2.302437e-02	4.226900e-02	6.369995e-02	8.328554e-02	7.181432e-02	1.665216e-02	4.739250e-02	3.739870e-02	1.840826e-01	2.953659e-02	2.344712e-02	2.667402e-02	2.437241e-02	2.545294e-02	2.490021e-02	1.512847e-02	4.424271e-03	2.227787e-02	8.003320e-03	2.264990e-02	2.073237e-02	2.131746e-02	5.695879e-03	2.016028e-02	5.536361e-02	1.618478e-02	1.790355e-02	1.252095e-02	1.391705e-02	2.804071e-02	1.710135e-02	3.033744e-02	4.440219e-02	3.085176e-03	1.509453e-01	-3.015499e-03	-1.350329e-01	5.123864e-02	6.050146e-02	7.701745e-02	-4.620358e-02	4.067497e-02	1.926178e-02	2.735043e-02	3.625532e-02	3.841472e-02	1.454605e-02	1.861735e-02	2.879125e-02	3.349607e-02	9.040884e-03	-3.588939e-03	3.047658e-04	2.161631e-02	1.751328e-02	4.576045e-01	1.895446e-02	1.324650e-02	2.043601e-02	1.957686e-02	2.388971e-02	3.495911e-02	-2.023952e-02	6.478184e-03	-7.360969e-02	-8.396190e-03	-1.416948e-01	-1.386144e-01	-1.429637e-01	-1.187772e-01	-7.031572e-02	-1.686059e-01	-7.418552e-02	-7.418965e-02	-8.311035e-02	-7.442990e-02	-5.471647e-02	-7.449227e-02	-7.261836e-02	-7.185781e-02	-6.068158e-02	-5.729699e-02	-1.281901e-01	-8.850216e-02	-7.086390e-02	-6.502565e-02	-1.224853e-01	-1.352844e-01	-1.059220e-01	-1.084084e-01	-1.155159e-01	-1.013351e-01	-7.355797e-02	-6.994370e-02	-1.166111e-01	-1.177186e-01	-6.700520e-02	-1.142011e-01	-1.123383e-01	-6.437791e-02	-7.177635e-02	-5.731686e-02	-5.941730e-02	-5.425788e-02	-5.558451e-02	-5.307964e-02	-5.342097e-02	-5.585615e-02	-5.341389e-02	-6.775816e-02	-5.893250e-02	-7.846904e-02	-5.315926e-02	-5.392893e-02	-5.374552e-02	-5.315095e-02	-5.637534e-02	-5.484180e-02	-6.055167e-02	-5.829891e-02	-6.567784e-02	-6.304914e-02	-7.277996e-02	-6.829968e-02	-1.134001e-01	-1.110767e-01	-1.161079e-01	-1.148923e-01	-1.413467e-01	-1.170778e-01	-1.279002e-01	-1.430561e-01	1.827533e-02	-6.874411e-02	6.742503e-02	3.944461e-02	2.101227e-02	2.604963e-02	-5.654284e-02	-1.390621e-01	-9.019100e-02	-1.250847e-01	-1.316990e-01	-1.072103e-01	-1.203637e-01	-9.491299e-02	-1.026693e-01	-1.042101e-01	-1.124449e-01	-1.251960e-01	-9.628602e-02	-7.858365e-02	-6.272080e-02	-3.966061e-01	-2.141045e-01	-2.864238e-01	3.111271e-02	6.888520e-03	-1.427404e-01	-7.451892e-02	1.606558e-03	-9.972671e-04	1.090855e-02	1.567629e-02	1.986265e-02	-1.114020e-01	-2.982841e-02	-2.041681e-02	1.742381e-02	3.048353e-02	4.810197e-02	-1.298387e-03	-5.901572e-02	2.979508e-02	3.459024e-02	1.067415e-01	1.818589e-02	3.938251e-02	3.753103e-02	1.159303e-02	3.858344e-03	1.613533e-02	1.139591e-03	6.412477e-02	1.450729e-02	3.123959e-02	2.832631e-02	2.065559e-02	1.096579e-02	1.928289e-02	4.446108e-02	3.526431e-02	-7.745751e-02	-1.132102e-01	-5.423872e-02	-4.955530e-02	-1.007086e-01	-5.341244e-02	-9.520418e-02	-5.100354e-02	-1.067006e-01	-6.530433e-02	-6.144929e-02	-6.697578e-02	-5.185325e-02	-1.187053e-01	-7.025109e-02	-8.978599e-02	-8.834017e-02	-7.234431e-02	-8.976036e-02	-1.027905e-01	2.902232e-02	1.583593e-02	-9.501399e-02	-9.669801e-02	-1.198146e-01	-7.842932e-02	-1.345120e-01	-5.286365e-02	1.485688e-02	-1.285398e-01	-1.818969e-01	-1.567235e-01	-5.892194e-02	-3.935343e-02	-2.938019e-03	-5.997331e-03	-1.037628e-02	2.399016e-03	1.515202e-01	9.533893e-03	1.972957e-01	1.402059e-01	-6.060103e-02	2.356062e-02	9.545000e-02	4.164963e-02	-5.833540e-02	1.211232e-01	-6.155329e-04	2.026768e-02	-5.984859e-02	3.838113e-02	-8.372752e-02	4.044306e-02	4.297925e-02	1.027790e-02	4.617282e-02	5.021197e-02	5.744676e-02	4.780917e-03	6.052573e-02	6.832970e-02	8.655959e-02	1.367131e-02	3.322710e-02	3.394281e-02	1.665133e-01	2.105530e-02	2.148251e-02	2.196787e-02	3.620186e-03	1.957828e-02	1.993394e-02	1.842726e-02	6.896751e-03	5.238392e-02	5.475422e-02	1.410319e-02	1.217937e-02	2.418889e-02	2.613162e-02	7.331101e-02	7.926900e-02	3.189055e-02	3.261009e-02	1.271048e-02	1.322207e-02	2.478687e-02	2.548309e-02	7.843472e-03	8.724520e-03	3.880461e-05	1.871030e-02	1.897522e-02	1.521496e-02	1.553361e-02	1.639723e-02	1.667482e-02	1.768453e-02	1.791779e-02	1.692239e-02	-1.408325e-02	-1.280433e-03	-1.212141e-01	-9.726644e-02	-6.102589e-02	-6.159268e-02	-6.166152e-02	-6.146914e-02	-8.357769e-02	-7.404861e-02	-5.753038e-02	-6.119113e-02	-6.089858e-02	-5.802053e-02	-5.571946e-02	-6.408869e-02	-1.146475e-01	-1.174969e-01	-8.694555e-02	-8.544115e-02	-9.592937e-02	-9.771365e-02	-9.903953e-02	-4.941170e-02	-5.082980e-02	-5.143891e-02	-4.970329e-02	-4.938540e-02	-5.415874e-02	-5.038824e-02	-4.988882e-02	-4.924812e-02	-4.933416e-02	-4.996169e-02	-5.040815e-02	-5.200335e-02	-5.273391e-02	-5.499639e-02	-5.586497e-02	-5.982993e-02	-6.050107e-02	-5.668212e-02	-5.749172e-02	-9.110746e-02	-9.227498e-02	-9.339717e-02	-9.435020e-02	-1.064043e-01	-1.213157e-01	-1.200529e-01	3.599030e-02	3.670267e-02	2.246375e-02	2.301712e-02	-4.699796e-02	-1.174788e-01	-1.052375e-01	-1.081410e-01	-7.780509e-02	-8.133983e-02	-5.686996e-02	-5.892130e-02	-6.163100e-02	-5.942641e-02	2.687547e-02	2.755675e-02	5.876323e-03	3.475399e-03	1.719199e-02	5.672753e-05	1.685227e-02	1.509275e-02	3.179571e-02	2.031476e-02	4.648476e-02	-1.030614e-01	-9.468488e-02	-6.842419e-02	-4.067047e-02	-1.121934e-01	-2.327470e-01	-2.115925e-01	1.517368e-01	6.241043e-03	3.063235e-03	-1.243072e-02	1.055579e-02	4.866853e-02	1.042681e-01	-4.967303e-02	2.565880e-01	-1.452606e-03	2.744648e-02	8.899906e-04	2.814686e-02	1.985891e-03	3.849779e-02	-3.114913e-05	1.580147e-02	3.731960e-02	2.669887e-02	1.152971e-01	9.369615e-04	-8.171826e-02	-5.085159e-02	-6.219972e-02	-4.691060e-02	-1.246713e-01	-5.098773e-02	-6.484396e-02	-4.527403e-02	-7.634640e-02	-9.473896e-02	-2.318175e-01	2.654951e-03	-2.647933e-02	-8.720037e-02	-1.916020e-02	6.346574e-02	1.008194e-02	-8.812067e-03	1.276343e-02	1.816311e-02	4.106194e-03	-6.532494e-02	-4.586395e-02	-4.493858e-02	-4.648531e-02	-8.769042e-02	-6.512398e-02	-4.934984e-02	-4.834696e-02	-5.108125e-02	-6.169246e-02	-6.937685e-02	-8.403368e-02	2.526988e-02	2.599863e-02	1.376405e-02	-7.798223e-02	-7.730113e-02	-7.658173e-02	-1.429317e-01	-5.139107e-02	-3.351348e-02	-1.850852e-03	-4.682849e-03	5.089117e-03	2.294263e-01	2.573541e-01	6.782046e-02	9.428844e-02	-4.911470e-02	1.781036e-02	-5.121883e-02	3.525541e-02	3.621385e-02	3.977519e-02	4.118773e-02	8.957967e-03	9.545723e-03	4.271495e-02	4.452207e-02	5.643551e-02	5.969643e-02	8.595983e-02	3.027042e-02	3.110948e-02	1.303147e-01	1.857467e-02	1.893577e-02	1.712562e-02	1.747611e-02	5.990073e-03	5.103024e-02	5.355508e-02	1.213147e-02	1.245235e-02	2.086559e-02	2.139856e-02	7.288463e-02	7.890319e-02	2.891922e-02	2.964230e-02	1.099867e-02	1.141326e-02	1.180389e-02	2.200443e-02	2.259760e-02	6.832964e-03	7.609502e-03	8.329070e-03	1.602012e-02	1.630575e-02	1.654391e-02	1.302440e-02	1.328550e-02	1.354914e-02	1.401865e-02	1.421128e-02	1.533903e-02	1.554132e-02	1.445832e-02	-9.946345e-02	-5.124718e-02	-5.136825e-02	-7.222826e-02	-5.134312e-02	-5.128184e-02	-5.141344e-02	-4.992161e-02	-5.351333e-02	-9.691341e-02	-9.850248e-02	-6.688902e-02	-6.817163e-02	-7.858005e-02	-8.015165e-02	-8.190576e-02	-4.526670e-02	-5.192141e-02	-5.046954e-02	-4.756354e-02	-4.682584e-02	-4.628808e-02	-4.536887e-02	-4.526478e-02	-4.509497e-02	-4.497031e-02	-4.497908e-02	-4.512252e-02	-4.553059e-02	-4.578464e-02	-4.613817e-02	-4.732704e-02	-5.021156e-02	-5.051593e-02	-4.780300e-02	-4.823233e-02	-4.876394e-02	-7.050956e-02	-7.172609e-02	-7.304465e-02	-7.430879e-02	-7.542888e-02	-9.962666e-02	-9.886168e-02	3.264164e-02	3.347699e-02	3.429997e-02	1.934447e-02	1.986147e-02	-9.694132e-02	-9.331866e-02	-8.642440e-02	-8.916200e-02	-9.204127e-02	-5.699482e-02	-4.718207e-02	-4.359858e-02	-4.232896e-02	-5.967781e-02	-5.738380e-02	-5.539269e-02	2.325575e-02	2.389569e-02	2.459284e-02	1.465906e-02	1.490160e-02	-4.205525e-04	9.493881e-03	-1.092081e-01	-7.770947e-02	1.845041e-02	-1.296424e-02	1.593513e-01	4.477351e-02	4.703034e-02	5.349394e-03	-9.477399e-02	-4.372198e-02	8.786886e-04	-6.358589e-02	6.768716e-05	-6.265799e-02	-1.008218e-01	-2.436031e-02	-4.198034e-02	-2.999170e-02	-9.125113e-02	1.017955e-01	2.997676e-02	1.113849e-02	3.699993e-03	1.482230e-02	9.162249e-03	1.576264e-02	1.308636e-02	-8.273957e-02	-4.316998e-02	-5.987009e-02	-5.742198e-02	-4.125854e-02	-6.060174e-02	-4.963270e-02	8.868876e-02	-7.819118e-02	3.561017e-02	-1.486934e-01	-8.843834e-02	1.133590e-01	6.570273e-02	2.815939e-03	2.465608e-02	-8.336120e-04	2.515390e-02	2.616048e-02	1.893888e-03	9.627503e-02	1.065003e-03	-4.274160e-02	-4.410410e-02	-3.485393e-02	-1.862254e-02	-5.444689e-02	-4.134565e-02	-4.601600e-02	-3.072525e-02	-4.062945e-02	-4.575426e-02	2.325061e-02	2.371867e-02	-7.319608e-02	-4.466575e-02	-3.627762e-02	-1.607119e-04	-3.453741e-03	4.573249e-03	6.163228e-02	8.177452e-02	-4.267658e-02	3.346436e-02	3.442588e-02	3.678659e-02	3.810918e-02	8.337288e-03	8.769529e-03	3.947050e-02	4.105582e-02	4.289920e-02	5.481989e-02	5.801602e-02	2.835513e-02	2.894808e-02	1.036256e-01	1.618540e-02	1.661189e-02	1.505667e-02	1.545353e-02	4.943022e-02	5.194958e-02	1.066142e-02	1.083237e-02	1.875833e-02	7.036676e-02	7.573595e-02	2.674570e-02	2.740306e-02	9.829215e-03	1.008916e-02	1.044150e-02	1.949290e-02	1.985187e-02	6.059192e-03	6.719170e-03	7.340498e-03	7.878185e-03	1.372627e-02	1.399042e-02	1.422700e-02	1.452259e-02	1.127801e-02	1.152800e-02	1.168881e-02	1.191334e-02	1.207029e-02	1.351489e-02	1.327528e-02	1.228739e-02	-4.402282e-02	-6.924835e-02	-6.576148e-02	-4.409103e-02	-4.400296e-02	-4.404022e-02	-4.409547e-02	-4.358542e-02	-7.892868e-02	-7.924682e-02	-5.159894e-02	-5.301653e-02	-6.188364e-02	-6.365475e-02	-6.538575e-02	-6.748238e-02	-4.958835e-02	-4.820914e-02	-4.698547e-02	-4.509572e-02	-4.433917e-02	-4.360564e-02	-4.315031e-02	-4.206309e-02	-4.192389e-02	-4.180792e-02	-4.143393e-02	-4.100680e-02	-4.131691e-02	-4.095468e-02	-4.138560e-02	-4.107433e-02	-4.161494e-02	-4.341618e-02	-4.389101e-02	-4.173526e-02	-4.245501e-02	-4.223175e-02	-4.296834e-02	-5.373437e-02	-5.471294e-02	-5.571120e-02	-5.711567e-02	-5.834644e-02	-5.947243e-02	-7.938112e-02	-7.930990e-02	3.067996e-02	3.149555e-02	3.247588e-02	1.687993e-02	1.752466e-02	1.779063e-02	-7.839748e-02	-7.573297e-02	-7.080153e-02	-6.986803e-02	-7.251469e-02	-7.498276e-02	-7.689748e-02	-4.202773e-02	-3.885978e-02	-3.423792e-02	-3.043026e-02	-5.125068e-02	-5.513854e-02	-5.319180e-02	2.065008e-02	2.105403e-02	2.190657e-02	2.234814e-02	1.246350e-02	1.268858e-02	1.286083e-02	2.787916e-03	-9.563455e-02	5.893677e-02	-1.598008e-01	2.055049e-03	2.396003e-02	8.547589e-03	1.282483e-03	-6.896630e-02	2.934676e-04	4.943152e-03	9.714973e-03	-4.914061e-02	-4.497648e-02	-2.706338e-02	-1.332482e-02	-8.692819e-03	-7.226147e-03	-8.874840e-03	3.425154e-05	9.796997e-02	-2.119397e-02	6.252752e-02	8.090800e-02	4.549828e-02	2.796756e-02	1.314857e-02	-8.493543e-02	-4.802691e-02	-5.294774e-02	-3.877365e-02	-3.881707e-02	-3.771971e-02	-3.827249e-02	-3.858629e-02	1.650982e-02	-2.260027e-02	-8.088973e-02	8.291933e-03	-1.704196e-01	-7.258037e-02	-6.494085e-03	1.736670e-01	1.854770e-01	4.366006e-02	5.514294e-03	-1.331476e-03	-5.142417e-02	5.266140e-04	-5.732470e-02	-2.253481e-02	-3.360382e-02	3.474739e-02	3.539412e-03	1.181472e-02	1.146354e-02	-7.638805e-02	-3.802700e-02	-5.508140e-02	7.546195e-02	2.244702e-02	-1.801382e-02	-2.440793e-02	-2.844302e-02	-3.525832e-02	2.106587e-02	-3.825374e-02	-3.218065e-02	-3.396271e-03	4.256797e-03	3.213843e-02	3.333078e-02	3.432889e-02	3.572301e-02	8.009762e-03	7.722431e-03	3.683649e-02	3.839135e-02	3.971638e-02	4.144035e-02	5.274578e-02	5.569684e-02	2.627415e-02	8.570390e-02	1.429950e-02	1.457074e-02	1.359579e-02	1.376258e-02	4.768495e-02	5.007013e-02	9.326843e-03	9.640674e-03	6.650749e-02	7.084768e-02	2.491663e-02	8.704515e-03	9.066756e-03	9.278221e-03	1.748433e-02	6.034871e-03	6.549366e-03	6.989744e-03	7.401801e-03	1.187801e-02	1.225036e-02	1.233245e-02	1.275524e-02	1.293699e-02	1.000452e-02	1.004088e-02	1.033690e-02	1.036620e-02	1.066823e-02	-6.563762e-02	-6.259695e-02	-5.985117e-02	-3.930375e-02	-3.875726e-02	-3.915828e-02	-3.868012e-02	-3.911018e-02	-6.202404e-02	-6.158828e-02	-3.777103e-02	-4.158670e-02	-5.179798e-02	-5.269350e-02	-5.454445e-02	-4.637356e-02	-4.537870e-02	-4.419471e-02	-4.349410e-02	-4.244965e-02	-4.185881e-02	-4.102387e-02	-4.030814e-02	-3.934439e-02	-3.897170e-02	-3.788438e-02	-3.767830e-02	-3.763466e-02	-3.793491e-02	-3.815589e-02	-4.172448e-02	-4.341407e-02	-4.313106e-02	-4.504955e-02	-4.528336e-02	-4.632754e-02	-4.772212e-02	-6.162105e-02	-6.218293e-02	2.914729e-02	3.027457e-02	3.112236e-02	1.490408e-02	1.562249e-02	-6.229460e-02	-6.057628e-02	-5.675306e-02	-5.674572e-02	-5.904649e-02	-6.098547e-02	-6.198873e-02	-6.212290e-02	-3.801653e-02	-3.692710e-02	-3.352158e-02	-2.758885e-02	-5.106241e-02	-4.947699e-02	1.858272e-02	1.977854e-02	1.071429e-02	1.104404e-02	1.108334e-02	1.141148e-02	1.877993e-01	-1.730987e-01	2.317265e-03	-9.613792e-03	8.404255e-02	5.820511e-02	-6.955542e-02	-1.741606e-02	-5.432169e-02	9.628867e-02	6.449363e-02	-4.131881e-03	5.201981e-03	2.971429e-03	-2.064216e-02	-8.232159e-02	-3.251908e-02	-2.087908e-02	3.568833e-03	5.531523e-02	1.419372e-02	-6.644873e-02	1.035534e-02	4.370194e-02	4.122261e-02	1.713996e-02	7.660367e-03	8.723525e-03	4.855081e-04	1.203777e-02	7.341149e-03	7.546125e-03	-4.377046e-02	-6.118864e-02	-4.560536e-02	-1.390132e-02	-3.702433e-02	5.258646e-02	-1.582769e-01	-6.369883e-02	-7.757008e-03	-2.009828e-03	6.820610e-02	2.234167e-02	-3.432042e-02	-3.495811e-02	-7.317075e-02	-1.355581e-03	-9.417944e-02	-5.426399e-03	1.732533e-01	5.582855e-03	1.488986e-03	1.776281e-03	-3.421466e-02	4.704650e-03	-5.241595e-02	-5.070769e-02	-3.427909e-02	-1.691297e-02	-2.329339e-02	2.104154e-02	-2.829384e-02	-2.442208e-02	4.149486e-03	3.157343e-02	3.394653e-02	7.110279e-03	3.653060e-02	3.852312e-02	5.005620e-02	7.247382e-02	1.268981e-02	4.561149e-02	4.773817e-02	8.429189e-03	6.120440e-02	2.347254e-02	2.496940e-02	8.020023e-03	8.203574e-03	1.505840e-02	5.970430e-03	6.285057e-03	6.657385e-03	6.925136e-03	1.076052e-02	1.126709e-02	1.154123e-02	8.995064e-03	9.291806e-03	-5.874127e-02	-5.645048e-02	-3.501169e-02	-3.483249e-02	-4.753471e-02	-3.096792e-02	-4.565039e-02	-3.643251e-02	-4.324111e-02	-4.131005e-02	-3.963740e-02	-3.817599e-02	-3.717116e-02	-3.562582e-02	-3.490498e-02	-3.441008e-02	-3.409557e-02	-3.391933e-02	-3.387631e-02	-3.389860e-02	-3.394002e-02	-3.462971e-02	-3.627617e-02	-3.687379e-02	-3.901966e-02	-4.015456e-02	-4.733140e-02	-4.838070e-02	2.656878e-02	2.841705e-02	2.976504e-02	1.307792e-02	1.346989e-02	-4.915914e-02	-4.817944e-02	-4.523058e-02	-4.137661e-02	-4.747686e-02	-4.906238e-02	-5.016912e-02	-5.017957e-02	-4.916195e-02	-4.978814e-02	-3.317786e-02	-2.862469e-02	-4.938470e-02	-4.751884e-02	1.605007e-02	1.832877e-02	1.962817e-02	9.631808e-03	9.980142e-03	-7.460626e-02	1.548058e-01	1.531322e-01	-1.027876e-01	6.159328e-03	-6.452784e-02	-4.322954e-02	8.552170e-02	2.769632e-03	4.207056e-03	1.062073e-01	7.417734e-02	-2.467354e-02	-1.408394e-02	-5.127200e-03	-5.243557e-02	2.121702e-02	-2.342664e-02	-8.472664e-02	3.531758e-02	5.015476e-03	-3.840694e-02	-2.753922e-02	3.212952e-03	1.047277e-02	4.157757e-02	1.639041e-02	1.340929e-02	5.082592e-02	5.307024e-02	5.333952e-03	5.614992e-03	-1.173576e-01	-5.835024e-02	-6.064351e-02	-4.927333e-02	-1.176402e-02	-3.122971e-02	1.883956e-02	6.572833e-03	-1.431991e-01	-1.441720e-01	-7.561034e-03	4.866172e-02	-5.079414e-02	4.160069e-02	5.553154e-02	-1.662015e-02	3.764579e-03	1.263057e-02	-1.775474e-03	6.681481e-03	6.773158e-03	-5.620931e-02	-1.064064e-02	4.669640e-02	5.816741e-02	2.008152e-02	-5.521018e-03	1.232410e-01	6.385730e-03	1.786351e-03	2.711294e-03	-3.133741e-02	4.621610e-03	-4.794510e-02	-3.132167e-02	-1.521875e-02	-3.123859e-02	-2.186786e-02	-1.922153e-02	3.048394e-02	3.296489e-02	3.752638e-02	3.985854e-02	6.259177e-02	1.101790e-02	4.316659e-02	4.485359e-02	1.009611e-02	2.543578e-02	2.697632e-02	2.244705e-02	6.838834e-03	7.066430e-03	7.152681e-03	5.849507e-03	9.167839e-03	9.629696e-03	7.306623e-03	7.521413e-03	1.756763e-02	-5.427198e-02	-3.140489e-02	-3.146055e-02	-3.922332e-02	-4.172036e-02	-3.961849e-02	-3.438281e-02	-3.776440e-02	-3.628718e-02	-3.519921e-02	-3.367236e-02	-3.297981e-02	-3.238337e-02	-3.194777e-02	-3.164489e-02	-3.143839e-02	-3.132235e-02	-1.655390e-02	-2.342855e-02	-2.737788e-02	-2.953620e-0