# vtk DataFile Version 3.0
vtk output
ASCII
DATASET UNSTRUCTURED_GRID
POINTS 5233 float
9.997500e-01	-3.632909e-05	0.0	9.990000e-01	-1.452618e-04	0.0	9.977600e-01	-3.252008e-04	0.0	9.960200e-01	-5.774943e-04	0.0	9.937800e-01	-9.022942e-04	0.0	9.910500e-01	-1.298763e-03	0.0	9.878400e-01	-1.766726e-03	0.0	9.841300e-01	-2.311194e-03	0.0	9.799500e-01	-2.930640e-03	0.0	9.752800e-01	-3.631444e-03	0.0	9.701500e-01	-4.412625e-03	0.0	9.645400e-01	-5.280292e-03	0.0	9.584700e-01	-6.233365e-03	0.0	9.519400e-01	-7.272227e-03	0.0	9.449600e-01	-8.393908e-03	0.0	9.375400e-01	-9.593773e-03	0.0	9.296900e-01	-1.086609e-02	0.0	9.214000e-01	-1.220804e-02	0.0	9.127000e-01	-1.361074e-02	0.0	9.035800e-01	-1.507272e-02	0.0	8.940600e-01	-1.658877e-02	0.0	8.841500e-01	-1.815610e-02	0.0	8.738500e-01	-1.977361e-02	0.0	8.631800e-01	-2.143627e-02	0.0	8.521600e-01	-2.313752e-02	0.0	8.407700e-01	-2.487471e-02	0.0	8.290500e-01	-2.663345e-02	0.0	8.170100e-01	-2.840162e-02	0.0	8.046400e-01	-3.016792e-02	0.0	7.919700e-01	-3.191393e-02	0.0	7.790100e-01	-3.362378e-02	0.0	7.657800e-01	-3.528073e-02	0.0	7.522800e-01	-3.687177e-02	0.0	7.385200e-01	-3.838440e-02	0.0	7.245300e-01	-3.980643e-02	0.0	7.103200e-01	-4.113073e-02	0.0	6.958900e-01	-4.235375e-02	0.0	6.812700e-01	-4.347212e-02	0.0	6.664700e-01	-4.448693e-02	0.0	6.515000e-01	-4.540154e-02	0.0	6.363800e-01	-4.622067e-02	0.0	6.211300e-01	-4.695082e-02	0.0	6.057600e-01	-4.760016e-02	0.0	5.902800e-01	-4.817747e-02	0.0	5.747100e-01	-4.869148e-02	0.0	5.590600e-01	-4.915119e-02	0.0	5.433600e-01	-4.956464e-02	0.0	5.276100e-01	-4.993996e-02	0.0	5.118400e-01	-5.028359e-02	0.0	4.960500e-01	-5.060149e-02	0.0	4.802700e-01	-5.089775e-02	0.0	4.645100e-01	-5.117554e-02	0.0	4.487800e-01	-5.143670e-02	0.0	4.331100e-01	-5.168146e-02	0.0	4.175000e-01	-5.190932e-02	0.0	4.019700e-01	-5.211839e-02	0.0	3.865400e-01	-5.230586e-02	0.0	3.712300e-01	-5.246816e-02	0.0	3.560400e-01	-5.260130e-02	0.0	3.409900e-01	-5.270061e-02	0.0	3.261100e-01	-5.276113e-02	0.0	3.114000e-01	-5.277790e-02	0.0	2.968700e-01	-5.274582e-02	0.0	2.825500e-01	-5.265996e-02	0.0	2.684500e-01	-5.251559e-02	0.0	2.545700e-01	-5.230801e-02	0.0	2.409400e-01	-5.203324e-02	0.0	2.275700e-01	-5.168749e-02	0.0	2.144700e-01	-5.126729e-02	0.0	2.016600e-01	-5.076993e-02	0.0	1.891400e-01	-5.019238e-02	0.0	1.769300e-01	-4.953284e-02	0.0	1.650400e-01	-4.878952e-02	0.0	1.534900e-01	-4.796177e-02	0.0	1.422900e-01	-4.704883e-02	0.0	1.314400e-01	-4.604934e-02	0.0	1.209500e-01	-4.496296e-02	0.0	1.108500e-01	-4.379208e-02	0.0	1.011300e-01	-4.253503e-02	0.0	9.181000e-02	-4.119389e-02	0.0	8.290000e-02	-3.976997e-02	0.0	7.440000e-02	-3.826304e-02	0.0	6.633000e-02	-3.667657e-02	0.0	5.869000e-02	-3.501058e-02	0.0	5.149000e-02	-3.326708e-02	0.0	4.474000e-02	-3.144844e-02	0.0	3.844000e-02	-2.955433e-02	0.0	3.260000e-02	-2.758711e-02	0.0	2.723000e-02	-2.554977e-02	0.0	2.232000e-02	-2.343708e-02	0.0	1.790000e-02	-2.126113e-02	0.0	1.395000e-02	-1.901092e-02	0.0	1.049000e-02	-1.669561e-02	0.0	7.520000e-03	-1.431461e-02	0.0	5.040000e-03	-1.186637e-02	0.0	3.050000e-03	-9.347302e-03	0.0	1.560000e-03	-6.769269e-03	0.0	5.600000e-04	-4.108233e-03	0.0	6.000000e-05	-1.363608e-03	0.0	0.000000e+00	0.000000e+00	0.0	6.000000e-05	1.350236e-03	0.0	5.600000e-04	4.050826e-03	0.0	1.560000e-03	6.663226e-03	0.0	3.050000e-03	9.195473e-03	0.0	5.040000e-03	1.167583e-02	0.0	7.520000e-03	1.409653e-02	0.0	1.049000e-02	1.646478e-02	0.0	1.395000e-02	1.878581e-02	0.0	1.790000e-02	2.106403e-02	0.0	2.232000e-02	2.329392e-02	0.0	2.723000e-02	2.549065e-02	0.0	3.260000e-02	2.764558e-02	0.0	3.844000e-02	2.976800e-02	0.0	4.474000e-02	3.185849e-02	0.0	5.149000e-02	3.391797e-02	0.0	5.869000e-02	3.595015e-02	0.0	6.633000e-02	3.795531e-02	0.0	7.440000e-02	3.993367e-02	0.0	8.290000e-02	4.188739e-02	0.0	9.181000e-02	4.381361e-02	0.0	1.011300e-01	4.571359e-02	0.0	1.108500e-01	4.758588e-02	0.0	1.209500e-01	4.942683e-02	0.0	1.314400e-01	5.123782e-02	0.0	1.422900e-01	5.301272e-02	0.0	1.534900e-01	5.474871e-02	0.0	1.650400e-01	5.644398e-02	0.0	1.769300e-01	5.809472e-02	0.0	1.891400e-01	5.969553e-02	0.0	2.016600e-01	6.124223e-02	0.0	2.144700e-01	6.272926e-02	0.0	2.275700e-01	6.415328e-02	0.0	2.409400e-01	6.550849e-02	0.0	2.545700e-01	6.679020e-02	0.0	2.684500e-01	6.799357e-02	0.0	2.825500e-01	6.911218e-02	0.0	2.968700e-01	7.014214e-02	0.0	3.114000e-01	7.107860e-02	0.0	3.261100e-01	7.191555e-02	0.0	3.409900e-01	7.264840e-02	0.0	3.560400e-01	7.327286e-02	0.0	3.712300e-01	7.378330e-02	0.0	3.865400e-01	7.417483e-02	0.0	4.019700e-01	7.444303e-02	0.0	4.175000e-01	7.458295e-02	0.0	4.331100e-01	7.458992e-02	0.0	4.487800e-01	7.445955e-02	0.0	4.645100e-01	7.418745e-02	0.0	4.802700e-01	7.376991e-02	0.0	4.960500e-01	7.320341e-02	0.0	5.118400e-01	7.248482e-02	0.0	5.276100e-01	7.161270e-02	0.0	5.433600e-01	7.058503e-02	0.0	5.590600e-01	6.940265e-02	0.0	5.747100e-01	6.806549e-02	0.0	5.902800e-01	6.657731e-02	0.0	6.057600e-01	6.494175e-02	0.0	6.211300e-01	6.316504e-02	0.0	6.363800e-01	6.125402e-02	0.0	6.515000e-01	5.921698e-02	0.0	6.664700e-01	5.706516e-02	0.0	6.812700e-01	5.481151e-02	0.0	6.958900e-01	5.246892e-02	0.0	7.103200e-01	5.005129e-02	0.0	7.245300e-01	4.757686e-02	0.0	7.385200e-01	4.505941e-02	0.0	7.522800e-01	4.251466e-02	0.0	7.657800e-01	3.996213e-02	0.0	7.790100e-01	3.741749e-02	0.0	7.919700e-01	3.489399e-02	0.0	8.046400e-01	3.240819e-02	0.0	8.170100e-01	2.997405e-02	0.0	8.290500e-01	2.760884e-02	0.0	8.407700e-01	2.532127e-02	0.0	8.521600e-01	2.312328e-02	0.0	8.631800e-01	2.103157e-02	0.0	8.738500e-01	1.905016e-02	0.0	8.841500e-01	1.718895e-02	0.0	8.940600e-01	1.545535e-02	0.0	9.035800e-01	1.385019e-02	0.0	9.127000e-01	1.237271e-02	0.0	9.214000e-01	1.102010e-02	0.0	9.296900e-01	9.781662e-03	0.0	9.375400e-01	8.650401e-03	0.0	9.449600e-01	7.612208e-03	0.0	9.519400e-01	6.656126e-03	0.0	9.584700e-01	5.772587e-03	0.0	9.645400e-01	4.954359e-03	0.0	9.701500e-01	4.195689e-03	0.0	9.752800e-01	3.496291e-03	0.0	9.799500e-01	2.852720e-03	0.0	9.841300e-01	2.270023e-03	0.0	9.878400e-01	1.747228e-03	0.0	9.910500e-01	1.290667e-03	0.0	9.937800e-01	8.994899e-04	0.0	9.960200e-01	5.767420e-04	0.0	9.977600e-01	3.250644e-04	0.0	9.990000e-01	1.452495e-04	0.0	9.997500e-01	3.632890e-05	0.0	1.000000e+00	0.000000e+00	0.0	1.984229e+01	2.506660e+00	0.0	1.937166e+01	4.973800e+00	0.0	1.859553e+01	7.362490e+00	0.0	1.752613e+01	9.635070e+00	0.0	1.618034e+01	1.175571e+01	0.0	1.457937e+01	1.369094e+01	0.0	1.274848e+01	1.541027e+01	0.0	1.071654e+01	1.688656e+01	0.0	8.515590e+00	1.809654e+01	0.0	6.180340e+00	1.902113e+01	0.0	3.747630e+00	1.964575e+01	0.0	1.255810e+00	1.996053e+01	0.0	-1.255810e+00	1.996053e+01	0.0	-3.747630e+00	1.964574e+01	0.0	-6.180340e+00	1.902113e+01	0.0	-8.515590e+00	1.809654e+01	0.0	-1.071654e+01	1.688656e+01	0.0	-1.274848e+01	1.541026e+01	0.0	-1.457937e+01	1.369094e+01	0.0	-1.618034e+01	1.175570e+01	0.0	-1.752613e+01	9.635070e+00	0.0	-1.859553e+01	7.362490e+00	0.0	-1.937166e+01	4.973800e+00	0.0	-1.984229e+01	2.506660e+00	0.0	-2.000000e+01	0.000000e+00	0.0	-1.984229e+01	-2.506670e+00	0.0	-1.937166e+01	-4.973800e+00	0.0	-1.859553e+01	-7.362490e+00	0.0	-1.752613e+01	-9.635080e+00	0.0	-1.618034e+01	-1.175571e+01	0.0	-1.457937e+01	-1.369094e+01	0.0	-1.274848e+01	-1.541027e+01	0.0	-1.071653e+01	-1.688656e+01	0.0	-8.515580e+00	-1.809654e+01	0.0	-6.180340e+00	-1.902113e+01	0.0	-3.747620e+00	-1.964575e+01	0.0	-1.255810e+00	-1.996053e+01	0.0	1.255810e+00	-1.996053e+01	0.0	3.747630e+00	-1.964574e+01	0.0	6.180340e+00	-1.902113e+01	0.0	8.515590e+00	-1.809654e+01	0.0	1.071654e+01	-1.688656e+01	0.0	1.274848e+01	-1.541026e+01	0.0	1.457937e+01	-1.369094e+01	0.0	1.618034e+01	-1.175570e+01	0.0	1.752614e+01	-9.635070e+00	0.0	1.859553e+01	-7.362490e+00	0.0	1.937166e+01	-4.973790e+00	0.0	1.984229e+01	-2.506660e+00	0.0	2.000000e+01	0.000000e+00	0.0	6.093892e-02	-4.285144e-02	0.0	6.600410e-01	-5.844939e-02	0.0	4.255297e-01	8.863687e-02	0.0	6.904536e-01	6.677179e-02	0.0	3.791252e-01	-6.656260e-02	0.0	9.994589e-01	-7.258723e-04	0.0	9.985402e-01	-1.320872e-03	0.0	7.738251e-01	-4.634860e-02	0.0	6.897588e-01	-5.606349e-02	0.0	-1.367138e-03	6.233161e-03	0.0	7.467650e-01	-4.997311e-02	0.0	5.838090e-01	8.122916e-02	0.0	9.927651e-01	-3.598793e-03	0.0	9.898616e-01	-4.480982e-03	0.0	5.994275e-01	7.958836e-02	0.0	7.187102e-01	-5.322760e-02	0.0	-1.548094e-03	7.305687e-04	0.0	9.864673e-01	-5.441292e-03	0.0	9.825916e-01	-6.470515e-03	0.0	-1.358171e-03	-6.336027e-03	0.0	6.449375e-01	-5.947833e-02	0.0	8.244939e-01	-3.842106e-02	0.0	7.997632e-01	-4.246746e-02	0.0	3.482204e-01	8.660152e-02	0.0	8.478910e-01	-3.434813e-02	0.0	2.468390e-01	7.862192e-02	0.0	8.698983e-01	-3.032503e-02	0.0	1.001408e-02	2.079824e-02	0.0	8.904116e-01	-2.642047e-02	0.0	7.722818e-02	-4.682321e-02	0.0	9.093595e-01	-2.267674e-02	0.0	-1.865007e-03	-3.138557e-03	0.0	9.422484e-01	-1.580904e-02	0.0	9.266631e-01	-1.912583e-02	0.0	1.806769e-02	-2.637803e-02	0.0	4.256782e-01	-6.623083e-02	0.0	8.590773e-01	-3.232303e-02	0.0	9.560748e-01	-1.276843e-02	0.0	9.782290e-01	-7.589010e-03	0.0	9.680882e-01	-1.002215e-02	0.0	1.584746e-01	-5.900398e-02	0.0	9.000881e-01	-2.452666e-02	0.0	7.604299e-01	-4.820093e-02	0.0	9.971132e-01	-2.058079e-03	0.0	5.988429e-01	-6.197001e-02	0.0	4.413590e-01	-6.604490e-02	0.0	5.361230e-01	-6.418097e-02	0.0	4.728882e-01	-6.557080e-02	0.0	5.045102e-01	-6.495629e-02	0.0	4.886866e-01	-6.528085e-02	0.0	1.251652e-01	-5.514410e-02	0.0	2.799454e-02	-3.148915e-02	0.0	3.945492e-01	-6.649285e-02	0.0	4.640172e-02	-3.855324e-02	0.0	4.100682e-01	-6.638196e-02	0.0	3.187978e-01	-6.636792e-02	0.0	3.486567e-01	-6.657206e-02	0.0	3.367005e-02	-3.391128e-02	0.0	2.896281e-01	-6.592628e-02	0.0	9.346743e-01	-1.743395e-02	0.0	1.470184e-01	-5.780948e-02	0.0	1.948400e-01	-6.200962e-02	0.0	8.600599e-02	-4.867547e-02	0.0	1.048018e-01	-5.210645e-02	0.0	5.676108e-01	-6.321237e-02	0.0	1.702734e-01	-6.010386e-02	0.0	6.143295e-01	-6.122907e-02	0.0	8.803501e-01	-2.835590e-02	0.0	2.280418e-02	-2.897635e-02	0.0	9.951875e-01	-2.803889e-03	0.0	6.796488e-03	-1.820110e-02	0.0	1.798544e-02	2.626178e-02	0.0	9.182203e-01	-2.087471e-02	0.0	9.49388
[...]
POINT_DATA 5233

SCALARS Conservative_1 float 1
LOOKUP_TABLE default
4.317294e-01	2.184766e-01	1.793503e-01	1.498549e-01	1.305774e-01	1.157855e-01	1.039936e-01	9.441339e-02	8.655036e-02	8.002409e-02	7.455713e-02	6.994850e-02	6.601817e-02	6.265607e-02	5.975325e-02	5.723232e-02	5.503015e-02	5.297155e-02	5.103716e-02	4.927298e-02	4.784826e-02	4.665129e-02	4.567120e-02	4.487642e-02	4.418485e-02	4.366096e-02	4.318566e-02	4.284148e-02	4.250038e-02	4.220623e-02	4.192792e-02	4.156688e-02	4.124151e-02	4.075244e-02	4.026814e-02	3.962732e-02	3.898440e-02	3.819759e-02	3.742925e-02	3.654327e-02	3.570193e-02	3.477571e-02	3.392045e-02	3.300958e-02	3.218591e-02	3.133762e-02	3.057432e-02	2.981965e-02	2.913244e-02	2.847733e-02	2.787848e-02	2.731216e-02	2.677624e-02	2.629993e-02	2.582874e-02	2.542317e-02	2.501322e-02	2.465522e-02	2.428501e-02	2.395680e-02	2.360860e-02	2.329508e-02	2.295051e-02	2.263318e-02	2.227784e-02	2.194070e-02	2.155990e-02	2.118853e-02	2.077361e-02	2.034882e-02	1.989245e-02	1.940265e-02	1.889329e-02	1.833583e-02	1.775148e-02	1.712954e-02	1.645605e-02	1.574843e-02	1.498629e-02	1.417965e-02	1.331367e-02	1.239369e-02	1.141094e-02	1.036290e-02	9.242644e-03	8.049770e-03	6.775137e-03	5.417024e-03	3.980749e-03	2.451703e-03	8.851451e-04	-5.590361e-04	-2.442402e-03	-4.844318e-03	-1.946568e-03	6.517417e-03	8.108368e-03	2.435529e-03	-4.898349e-03	-1.173261e-02	-1.805020e-02	-3.185920e-02	-5.229684e-02	-6.911542e-02	-8.436526e-02	-1.074510e-01	-1.344717e-01	-1.529846e-01	-1.609213e-01	-1.637960e-01	-1.652662e-01	-1.657755e-01	-1.650663e-01	-1.628935e-01	-1.596598e-01	-1.558700e-01	-1.519924e-01	-1.483233e-01	-1.451473e-01	-1.425019e-01	-1.403374e-01	-1.387576e-01	-1.378025e-01	-1.374493e-01	-1.373321e-01	-1.371560e-01	-1.368306e-01	-1.363792e-01	-1.358307e-01	-1.351938e-01	-1.342798e-01	-1.332396e-01	-1.321143e-01	-1.311374e-01	-1.304158e-01	-1.295657e-01	-1.281217e-01	-1.253448e-01	-1.209107e-01	-1.136620e-01	-1.025986e-01	-9.002910e-02	-8.243333e-02	-8.111068e-02	-8.324102e-02	-8.570491e-02	-8.741279e-02	-8.844982e-02	-8.899000e-02	-8.916151e-02	-8.884626e-02	-8.823860e-02	-8.722487e-02	-8.599934e-02	-8.461959e-02	-8.300017e-02	-8.139880e-02	-7.959941e-02	-7.778374e-02	-7.594469e-02	-7.403437e-02	-7.222197e-02	-7.034406e-02	-6.862837e-02	-6.687580e-02	-6.531718e-02	-6.375157e-02	-6.240123e-02	-6.106568e-02	-5.995715e-02	-5.887860e-02	-5.804143e-02	-5.722565e-02	-5.667317e-02	-5.623032e-02	-5.598497e-02	-5.597155e-02	-5.617665e-02	-5.672934e-02	-5.755514e-02	-5.891650e-02	-6.059553e-02	-6.255696e-02	-6.472691e-02	-6.731530e-02	-7.025331e-02	-7.363612e-02	-7.742297e-02	-8.171560e-02	-8.657454e-02	-9.216572e-02	-9.865833e-02	-1.063316e-01	-1.154967e-01	-1.266214e-01	-1.403492e-01	-1.612338e-01	-1.807554e-01	-3.454793e-01	3.295725e-02	-1.213579e-04	-1.325843e-04	-1.430422e-04	-1.518772e-04	-1.626335e-04	-1.705777e-04	-1.792622e-04	-1.816751e-04	-1.745499e-04	-1.718738e-04	-1.767676e-04	-1.773280e-04	-1.786270e-04	-1.692010e-04	-1.490260e-04	-1.394517e-04	-1.198196e-04	-1.058381e-04	-9.070947e-05	-7.089873e-05	-4.325749e-05	-2.722265e-05	3.467539e-05	1.853845e-04	1.375083e-04	1.618399e-04	2.255180e-04	2.316580e-04	1.411123e-04	1.748238e-04	2.035374e-04	2.181025e-04	2.296866e-04	2.311975e-04	2.298562e-04	2.176614e-04	1.818345e-04	1.501734e-04	9.068950e-05	6.615216e-05	5.381968e-05	3.220200e-05	1.032658e-05	-1.229279e-05	-3.345681e-05	-5.212731e-05	-6.822709e-05	-8.368548e-05	-9.725394e-05	-1.099957e-04	9.995242e-03	3.274435e-02	-7.289664e-02	-6.194241e-02	2.197098e-02	3.377168e-01	2.422876e-01	3.795234e-02	3.426982e-02	-3.243994e-02	3.687247e-02	-7.096713e-02	1.287719e-01	1.127105e-01	-6.973424e-02	3.565998e-02	-1.372814e-02	1.005621e-01	9.106759e-02	4.014466e-03	3.197085e-02	4.010868e-02	3.898051e-02	-8.234810e-02	4.150420e-02	-1.086423e-01	4.333739e-02	-1.141618e-01	4.585069e-02	1.173499e-02	4.936307e-02	-1.928470e-03	5.785792e-02	5.331909e-02	1.634384e-03	2.305138e-02	4.234419e-02	6.381553e-02	8.341874e-02	7.193856e-02	1.665613e-02	4.748134e-02	3.745292e-02	1.841829e-01	2.957498e-02	2.347522e-02	2.670837e-02	2.440271e-02	2.548511e-02	2.493147e-02	1.512772e-02	4.394643e-03	2.230259e-02	7.982477e-03	2.267579e-02	2.075154e-02	2.133871e-02	5.669133e-03	2.017696e-02	5.546715e-02	1.618726e-02	1.791170e-02	1.251257e-02	1.391270e-02	2.807708e-02	1.710676e-02	3.037705e-02	4.448375e-02	3.052504e-03	1.510712e-01	-3.067602e-03	-1.350199e-01	5.133462e-02	6.061276e-02	7.714623e-02	-4.632865e-02	4.074439e-02	1.927492e-02	2.738583e-02	3.630542e-02	3.847365e-02	1.454353e-02	1.862799e-02	2.882869e-02	3.353994e-02	9.022798e-03	-3.589372e-03	2.699501e-04	2.163868e-02	1.752010e-02	4.577636e-01	1.896637e-02	1.324020e-02	2.045396e-02	1.959117e-02	2.391893e-02	3.500561e-02	-2.036828e-02	6.518235e-03	-7.402813e-02	-8.468719e-03	-1.413923e-01	-1.378004e-01	-1.423542e-01	-1.187700e-01	-7.170100e-02	-1.699374e-01	-7.470727e-02	-7.521164e-02	-8.349148e-02	-7.473666e-02	-5.488211e-02	-7.532942e-02	-7.397651e-02	-7.101256e-02	-6.088567e-02	-5.747727e-02	-1.276695e-01	-8.893397e-02	-7.114314e-02	-6.526124e-02	-1.222774e-01	-1.344991e-01	-1.045027e-01	-1.072918e-01	-1.155395e-01	-9.821532e-02	-7.474742e-02	-7.080381e-02	-1.167072e-01	-1.177661e-01	-6.717936e-02	-1.139192e-01	-1.115596e-01	-6.452959e-02	-7.206279e-02	-5.745008e-02	-5.955209e-02	-5.439435e-02	-5.571793e-02	-5.322692e-02	-5.356215e-02	-5.602827e-02	-5.356959e-02	-6.801363e-02	-5.912352e-02	-7.880962e-02	-5.331040e-02	-5.408933e-02	-5.388408e-02	-5.329497e-02	-5.650834e-02	-5.497648e-02	-6.068871e-02	-5.843218e-02	-6.583881e-02	-6.319401e-02	-7.312272e-02	-6.849175e-02	-1.128749e-01	-1.100969e-01	-1.161893e-01	-1.147981e-01	-1.405976e-01	-1.171600e-01	-1.282774e-01	-1.426116e-01	1.828474e-02	-6.956342e-02	6.754491e-02	3.950867e-02	2.103248e-02	2.608286e-02	-5.679577e-02	-1.388744e-01	-9.142565e-02	-1.247291e-01	-1.310227e-01	-1.060296e-01	-1.202730e-01	-9.540742e-02	-1.032448e-01	-1.022163e-01	-1.131255e-01	-1.260200e-01	-9.145033e-02	-7.412272e-02	-6.293916e-02	-3.999920e-01	-2.159623e-01	-2.891853e-01	3.115340e-02	6.864727e-03	-1.437661e-01	-7.518146e-02	1.684796e-03	-1.037654e-03	1.089559e-02	1.567718e-02	1.987810e-02	-1.108925e-01	-2.996271e-02	-2.052876e-02	1.744818e-02	3.054026e-02	4.820107e-02	-1.341299e-03	-5.930674e-02	2.985092e-02	3.465710e-02	1.069212e-01	1.821439e-02	3.946315e-02	3.760654e-02	1.159146e-02	3.859906e-03	1.615289e-02	1.108274e-03	6.425284e-02	1.451734e-02	3.129813e-02	2.837989e-02	2.069406e-02	1.096194e-02	1.931643e-02	4.455321e-02	3.533327e-02	-7.843579e-02	-1.131843e-01	-5.443825e-02	-4.971962e-02	-1.007166e-01	-5.360444e-02	-9.532958e-02	-5.117453e-02	-1.073379e-01	-6.156926e-02	-6.194815e-02	-6.725327e-02	-5.202794e-02	-1.194589e-01	-7.055445e-02	-9.026012e-02	-8.760941e-02	-6.829997e-02	-8.916142e-02	-1.026846e-01	2.907694e-02	1.585213e-02	-9.569231e-02	-9.687437e-02	-1.192054e-01	-7.880061e-02	-1.354254e-01	-5.304325e-02	1.486846e-02	-1.298255e-01	-1.832791e-01	-1.578445e-01	-5.973202e-02	-3.948574e-02	-2.972886e-03	-6.046712e-03	-1.045093e-02	2.369444e-03	1.515084e-01	9.524945e-03	1.975495e-01	1.404152e-01	-6.153063e-02	2.360624e-02	9.561834e-02	4.173545e-02	-5.860167e-02	1.213180e-01	-6.449674e-04	2.030483e-02	-6.120334e-02	3.845890e-02	-8.236762e-02	4.052620e-02	4.306809e-02	1.027163e-02	4.626809e-02	5.031525e-02	5.756359e-02	4.757485e-03	6.064796e-02	6.846423e-02	8.671846e-02	1.367780e-02	3.329022e-02	3.400770e-02	1.667516e-01	2.109509e-02	2.152346e-02	2.201007e-02	3.593840e-03	1.961307e-02	1.996991e-02	1.845688e-02	6.879409e-03	5.249122e-02	5.486621e-02	1.411150e-02	1.218002e-02	2.423580e-02	2.618163e-02	7.345257e-02	7.941844e-02	3.195031e-02	3.267171e-02	1.271318e-02	1.322670e-02	2.483467e-02	2.553220e-02	7.829060e-03	8.712978e-03	8.070943e-06	1.874113e-02	1.900738e-02	1.522817e-02	1.554838e-02	1.641628e-02	1.669529e-02	1.771034e-02	1.794504e-02	1.694420e-02	-1.416756e-02	-1.247084e-03	-1.206755e-01	-9.781117e-02	-6.145345e-02	-6.219218e-02	-6.240312e-02	-6.234998e-02	-8.399486e-02	-7.438264e-02	-5.773836e-02	-6.211424e-02	-6.177580e-02	-6.012705e-02	-5.591608e-02	-6.434459e-02	-1.140464e-01	-1.168623e-01	-8.608721e-02	-8.441021e-02	-9.610157e-02	-9.786227e-02	-9.913285e-02	-4.957688e-02	-5.100399e-02	-5.161691e-02	-4.986993e-02	-4.954929e-02	-5.434577e-02	-5.055639e-02	-5.005476e-02	-4.941202e-02	-4.949850e-02	-5.013023e-02	-5.057977e-02	-5.218536e-02	-5.292108e-02	-5.520412e-02	-5.608351e-02	-6.015752e-02	-6.087452e-02	-5.691332e-02	-5.773809e-02	-9.066525e-02	-9.200636e-02	-9.329392e-02	-9.438253e-02	-1.066693e-01	-1.208709e-01	-1.197149e-01	3.606167e-02	3.677595e-02	2.250690e-02	2.306170e-02	-4.734924e-02	-1.172711e-01	-1.049962e-01	-1.077594e-01	-7.477716e-02	-7.934551e-02	-5.836184e-02	-5.784553e-02	-6.186847e-02	-5.964826e-02	2.692700e-02	2.760902e-02	5.855925e-03	3.531500e-03	1.721505e-02	4.259347e-05	1.689455e-02	1.512571e-02	3.186896e-02	2.036766e-02	4.658923e-02	-1.036983e-01	-9.524339e-02	-6.875203e-02	-4.107693e-02	-1.129192e-01	-2.345602e-01	-2.130840e-01	1.519662e-01	5.810162e-03	3.040350e-03	-1.249338e-02	1.056159e-02	4.877688e-02	1.044583e-01	-4.998071e-02	2.568977e-01	-1.491953e-03	2.751086e-02	9.292769e-04	2.821238e-02	1.959851e-03	3.858689e-02	-6.200896e-05	1.583843e-02	3.740626e-02	2.676170e-02	1.154949e-01	9.110940e-04	-8.215838e-02	-5.125232e-02	-6.247972e-02	-4.714008e-02	-1.255172e-01	-5.143472e-02	-6.331097e-02	-4.365912e-02	-7.649422e-02	-9.433330e-02	-2.336401e-01	2.677782e-03	-2.660075e-02	-8.743373e-02	-1.925013e-02	6.360227e-02	1.008532e-02	-8.867774e-03	1.278129e-02	1.821040e-02	4.086539e-03	-6.605155e-02	-4.604965e-02	-4.512856e-02	-4.670720e-02	-8.818417e-02	-6.542618e-02	-4.954521e-02	-4.853818e-02	-4.790596e-02	-5.930636e-02	-6.904639e-02	-8.397398e-02	2.533075e-02	2.606080e-02	1.378849e-02	-7.850233e-02	-7.749358e-02	-7.697748e-02	-1.439413e-01	-5.207247e-02	-3.370165e-02	-1.858201e-03	-4.713561e-03	5.072392e-03	2.298139e-01	2.576613e-01	6.796386e-02	9.446784e-02	-4.940033e-02	1.785640e-02	-5.208866e-02	3.533729e-02	3.629790e-02	3.986697e-02	4.128259e-02	8.956090e-03	9.546492e-03	4.281290e-02	4.462344e-02	5.655931e-02	5.982618e-02	8.612941e-02	3.034005e-02	3.118138e-02	1.305234e-01	1.862323e-02	1.898528e-02	1.716876e-02	1.752064e-02	5.976455e-03	5.114328e-02	5.367322e-02	1.214566e-02	1.246844e-02	2.091975e-02	2.145346e-02	7.303621e-02	7.906367e-02	2.898626e-02	2.971126e-02	1.100676e-02	1.142344e-02	1.181615e-02	2.206061e-02	2.265449e-02	6.822541e-03	7.602009e-03	8.324480e-03	1.605817e-02	1.634538e-02	1.658492e-02	1.304395e-02	1.330673e-02	1.357211e-02	1.404457e-02	1.423867e-02	1.537361e-02	1.557707e-02	1.448721e-02	-9.907332e-02	-5.177054e-02	-5.199086e-02	-7.258711e-02	-5.202628e-02	-5.190909e-02	-5.198746e-02	-5.170359e-02	-5.373204e-02	-9.650473e-02	-9.810735e-02	-6.598174e-02	-6.765625e-02	-7.876953e-02	-8.029727e-02	-8.196318e-02	-4.546863e-02	-5.213019e-02	-5.067107e-02	-4.775197e-02	-4.701241e-02	-4.647328e-02	-4.555463e-02	-4.545150e-02	-4.528337e-02	-4.516269e-02	-4.517433e-02	-4.532144e-02	-4.573736e-02	-4.599581e-02	-4.635462e-02	-4.756451e-02	-5.054833e-02	-5.088307e-02	-4.805025e-02	-4.849022e-02	-4.903528e-02	-7.024586e-02	-7.150507e-02	-7.289143e-02	-7.425771e-02	-7.548860e-02	-9.923211e-02	-9.849445e-02	3.271712e-02	3.355468e-02	3.437943e-02	1.939485e-02	1.991358e-02	-9.669195e-02	-9.328248e-02	-8.624195e-02	-8.887317e-02	-9.167474e-02	-5.385493e-02	-4.999523e-02	-4.677827e-02	-4.357740e-02	-5.993863e-02	-5.762841e-02	-5.562321e-02	2.331402e-02	2.395475e-02	2.465326e-02	1.468924e-02	1.493326e-02	-4.181399e-04	9.507085e-03	-1.099358e-01	-7.815319e-02	1.850690e-02	-1.301676e-02	1.595761e-01	4.487874e-02	4.713911e-02	5.339874e-03	-9.537229e-02	-4.410316e-02	8.997369e-04	-6.402168e-02	3.779605e-05	-6.297839e-02	-1.014781e-01	-2.449903e-02	-4.221320e-02	-3.021927e-02	-9.206269e-02	1.018522e-01	3.005242e-02	1.116407e-02	3.684210e-03	1.486985e-02	9.173068e-03	1.581288e-02	1.312600e-02	-8.322774e-02	-4.346235e-02	-6.016945e-02	-5.770344e-02	-4.146096e-02	-6.067716e-02	-4.787840e-02	8.885357e-02	-7.799989e-02	3.569951e-02	-1.497728e-01	-8.897923e-02	1.135508e-01	6.584286e-02	2.796771e-03	2.472126e-02	-8.584817e-04	2.521981e-02	2.622792e-02	1.872916e-03	9.644841e-02	1.042471e-03	-4.294314e-02	-4.446178e-02	-3.270527e-02	-1.871118e-02	-5.500643e-02	-4.156896e-02	-4.622763e-02	-3.083751e-02	-3.761211e-02	-4.315498e-02	2.331407e-02	2.378250e-02	-7.360140e-02	-4.520850e-02	-3.666794e-02	-1.543403e-04	-3.468829e-03	4.560548e-03	6.176661e-02	8.193353e-02	-4.294862e-02	3.354890e-02	3.451250e-02	3.687808e-02	3.820349e-02	8.342780e-03	8.777680e-03	3.956748e-02	4.115501e-02	4.300199e-02	5.494330e-02	5.814461e-02	2.842721e-02	2.902171e-02	1.038044e-01	1.623655e-02	1.666464e-02	1.510470e-02	1.550286e-02	4.954372e-02	5.206768e-02	1.068325e-02	1.085584e-02	1.881544e-02	7.051279e-02	7.588874e-02	2.681511e-02	2.747340e-02	9.844823e-03	1.010688e-02	1.046129e-02	1.955125e-02	1.991061e-02	6.052769e-03	6.716045e-03	7.340439e-03	7.880893e-03	1.376916e-02	1.403459e-02	1.427212e-02	1.456888e-02	1.130506e-02	1.155696e-02	1.171898e-02	1.194513e-02	1.210347e-02	1.355702e-02	1.331602e-02	1.232220e-02	-4.446337e-02	-6.962065e-02	-6.610608e-02	-4.459458e-02	-4.451723e-02	-4.452408e-02	-4.464768e-02	-4.463304e-02	-7.875843e-02	-7.903739e-02	-5.068633e-02	-5.264807e-02	-6.199184e-02	-6.375344e-02	-6.540759e-02	-6.739885e-02	-4.981879e-02	-4.843155e-02	-4.720178e-02	-4.530382e-02	-4.454498e-02	-4.380911e-02	-4.335283e-02	-4.226472e-02	-4.212564e-02	-4.201011e-02	-4.163831e-02	-4.121210e-02	-4.152574e-02	-4.116394e-02	-4.160015e-02	-4.128946e-02	-4.183672e-02	-4.374359e-02	-4.420964e-02	-4.197035e-02	-4.270244e-02	-4.248293e-02	-4.323495e-02	-5.356899e-02	-5.458022e-02	-5.554376e-02	-5.695379e-02	-5.825020e-02	-5.947149e-02	-7.908529e-02	-7.896048e-02	3.075808e-02	3.157504e-02	3.255740e-02	1.693295e-02	1.757904e-02	1.784601e-02	-7.812828e-02	-7.568725e-02	-7.102132e-02	-6.968410e-02	-7.226658e-02	-7.471934e-02	-7.666192e-02	-4.395039e-02	-4.180583e-02	-3.804236e-02	-3.313828e-02	-5.149078e-02	-5.540420e-02	-5.344386e-02	2.070985e-02	2.111454e-02	2.196811e-02	2.241019e-02	1.249942e-02	1.272579e-02	1.289899e-02	2.773079e-03	-9.625055e-02	5.906286e-02	-1.609863e-01	2.038620e-03	2.402395e-02	8.567846e-03	1.262399e-03	-6.936475e-02	2.792931e-04	4.937745e-03	9.746742e-03	-4.902270e-02	-4.542167e-02	-2.730402e-02	-1.337834e-02	-8.739679e-03	-7.265923e-03	-8.911679e-03	3.376481e-05	9.814964e-02	-2.251023e-02	6.265843e-02	8.106393e-02	4.560425e-02	2.804021e-02	1.319644e-02	-8.546516e-02	-4.827163e-02	-5.322558e-02	-3.903303e-02	-3.909879e-02	-3.792297e-02	-3.846829e-02	-3.889187e-02	1.656389e-02	-2.612753e-02	-8.138621e-02	8.309884e-03	-1.716932e-01	-7.300828e-02	-6.519631e-03	1.739139e-01	1.857199e-01	4.376273e-02	5.512085e-03	-1.322496e-03	-5.179979e-02	5.037858e-04	-5.763428e-02	-2.269053e-02	-3.390458e-02	3.472952e-02	3.527349e-03	1.185853e-02	1.150660e-02	-7.684739e-02	-3.826149e-02	-5.537444e-02	7.561017e-02	2.250830e-02	-1.811138e-02	-2.286650e-02	-2.590975e-02	-3.249712e-02	2.112541e-02	-3.868817e-02	-3.253205e-02	-3.394592e-03	4.248246e-03	3.222150e-02	3.341653e-02	3.441658e-02	3.581374e-02	8.025201e-03	7.735198e-03	3.692931e-02	3.848719e-02	3.981483e-02	4.154036e-02	5.286325e-02	5.581880e-02	2.634254e-02	8.586996e-02	1.435004e-02	1.462196e-02	1.364488e-02	1.381230e-02	4.779458e-02	5.018334e-02	9.355087e-03	9.670008e-03	6.664362e-02	7.098920e-02	2.498269e-02	8.727008e-03	9.090666e-03	9.305046e-03	1.753939e-02	6.035933e-03	6.553687e-03	6.997173e-03	7.411982e-03	1.192256e-02	1.229577e-02	1.237861e-02	1.280227e-02	1.298492e-02	1.003729e-02	1.007567e-02	1.037255e-02	1.040335e-02	1.070619e-02	-6.600988e-02	-6.294555e-02	-6.017901e-02	-3.967154e-02	-3.916778e-02	-3.960829e-02	-3.914901e-02	-3.972833e-02	-6.203017e-02	-6.152635e-02	-3.574638e-02	-4.054805e-02	-5.175114e-02	-5.257756e-02	-5.435628e-02	-4.661097e-02	-4.560876e-02	-4.441960e-02	-4.371356e-02	-4.266479e-02	-4.207078e-02	-4.123200e-02	-4.051253e-02	-3.954499e-02	-3.916995e-02	-3.807920e-02	-3.787398e-02	-3.783294e-02	-3.814710e-02	-3.837992e-02	-4.119965e-02	-4.327066e-02	-4.298855e-02	-4.486596e-02	-4.506943e-02	-4.612243e-02	-4.756244e-02	-6.142112e-02	-6.187959e-02	2.922283e-02	3.035250e-02	3.120300e-02	1.495540e-02	1.567500e-02	-6.203894e-02	-6.053179e-02	-5.695909e-02	-5.650889e-02	-5.881117e-02	-6.080281e-02	-6.189434e-02	-6.210766e-02	-3.906109e-02	-3.867064e-02	-3.611536e-02	-3.148503e-02	-5.132826e-02	-4.973105e-02	1.863928e-02	1.983676e-02	1.075365e-02	1.108419e-02	1.112468e-02	1.145355e-02	1.880434e-01	-1.743886e-01	2.304416e-03	-9.643851e-03	8.423305e-02	5.832804e-02	-6.997316e-02	-1.752578e-02	-5.463006e-02	9.647535e-02	6.462863e-02	-4.117631e-03	5.203979e-03	2.960893e-03	-2.415334e-02	-8.285912e-02	-3.287553e-02	-2.104655e-02	3.560912e-03	5.543352e-02	1.424259e-02	-6.684430e-02	1.039871e-02	4.380312e-02	4.132034e-02	1.719243e-02	7.686958e-03	8.759753e-03	4.630957e-04	1.208394e-02	7.363254e-03	7.570383e-03	-4.340436e-02	-6.154632e-02	-4.585258e-02	-1.396430e-02	-3.739097e-02	5.270039e-02	-1.594982e-01	-6.407499e-02	-7.794592e-03	-2.013500e-03	6.834891e-02	2.240215e-02	-3.454273e-02	-3.524318e-02	-7.361230e-02	-1.421689e-03	-9.478337e-02	-5.436474e-03	1.734792e-01	5.587943e-03	1.471368e-03	1.762230e-03	-3.441255e-02	4.703352e-03	-5.271030e-02	-5.098914e-02	-3.448786e-02	-1.757099e-02	-2.124112e-02	2.109934e-02	-2.860343e-02	-2.466018e-02	4.144699e-03	3.165412e-02	3.403229e-02	7.129931e-03	3.662172e-02	3.861758e-02	5.016624e-02	7.262809e-02	1.273669e-02	4.571510e-02	4.784506e-02	8.462768e-03	6.133287e-02	2.353498e-02	2.503490e-02	8.048803e-03	8.235378e-03	1.510849e-02	5.978806e-03	6.296811e-03	6.671195e-03	6.942278e-03	1.080475e-02	1.131194e-02	1.158697e-02	9.033001e-03	9.331732e-03	-5.908136e-02	-5.677450e-02	-3.537130e-02	-3.543213e-02	-4.756673e-02	-2.923521e-02	-4.527597e-02	-3.661624e-02	-4.347317e-02	-4.152806e-02	-3.984330e-02	-3.837173e-02	-3.736030e-02	-3.580402e-02	-3.507870e-02	-3.458094e-02	-3.426509e-02	-3.408971e-02	-3.404974e-02	-3.407701e-02	-3.412587e-02	-3.402303e-02	-3.601746e-02	-3.653761e-02	-3.864409e-02	-3.973299e-02	-4.719230e-02	-4.812842e-02	2.663792e-02	2.849034e-02	2.984181e-02	1.312576e-02	1.351794e-02	-4.894380e-02	-4.814955e-02	-4.541894e-02	-4.169975e-02	-4.715958e-02	-4.884068e-02	-5.006694e-02	-5.020705e-02	-4.927157e-02	-4.990591e-02	-3.450517e-02	-3.114571e-02	-4.965635e-02	-4.777913e-02	1.610129e-02	1.838290e-02	1.968402e-02	9.673062e-03	1.002215e-02	-7.505714e-02	1.550352e-01	1.533610e-01	-1.034644e-01	6.178424e-03	-6.490658e-02	-4.351308e-02	8.569876e-02	2.763641e-03	4.206135e-03	1.064002e-01	7.433937e-02	-2.494753e-02	-1.415871e-02	-5.116027e-03	-5.274349e-02	2.127506e-02	-2.598630e-02	-8.525400e-02	3.540383e-02	5.021467e-03	-3.849886e-02	-2.783808e-02	3.206120e-03	1.051482e-02	4.167312e-02	1.644098e-02	1.345574e-02	5.093866e-02	5.318892e-02	5.343101e-03	5.627232e-03	-1.181445e-01	-5.869349e-02	-6.099865e-02	-4.955911e-02	-1.246438e-02	-3.139904e-02	1.889357e-02	6.597869e-03	-1.442280e-01	-1.452250e-01	-7.580358e-03	4.876948e-02	-5.109055e-02	4.169007e-02	5.565684e-02	-1.674283e-02	3.760487e-03	1.267587e-02	-1.802410e-03	6.709323e-03	6.802761e-03	-5.654014e-02	-1.067188e-02	4.680026e-02	5.830139e-02	2.013756e-02	-5.515845e-03	1.234885e-01	6.408908e-03	1.755368e-03	2.701683e-03	-3.152576e-02	4.624037e-03	-4.822034e-02	-3.149900e-02	-1.824429e-02	-3.140216e-02	-2.209715e-02	-1.939614e-02	3.056025e-02	3.304644e-02	3.761565e-02	3.995159e-02	6.273760e-02	1.106078e-02	4.326409e-02	4.495392e-02	1.013795e-02	2.550178e-02	2.704589e-02	2.250737e-02	6.870344e-03	7.100291e-03	7.187899e-03	5.865092e-03	9.208260e-03	9.670878e-03	7.343062e-03	7.559495e-03	1.761975e-02	-5.459180e-02	-3.161287e-02	-3.171110e-02	-3.860544e-02	-4.195001e-02	-3.983027e-02	-3.455033e-02	-3.795997e-02	-3.647016e-02	-3.537311e-02	-3.383496e-02	-3.313809e-02	-3.253866e-02	-3.210191e-02	-3.179932e-02	-3.159439e-02	-3.148153e-02	-1.496904e-02	-2.178860e-02	-2.655090e-02	-2.903334e-0