# vtk DataFile Version 3.0
vtk output
ASCII
DATASET UNSTRUCTURED_GRID
POINTS 5233 float
9.997500e-01	-3.632909e-05	0.0	9.990000e-01	-1.452618e-04	0.0	9.977600e-01	-3.252008e-04	0.0	9.960200e-01	-5.774943e-04	0.0	9.937800e-01	-9.022942e-04	0.0	9.910500e-01	-1.298763e-03	0.0	9.878400e-01	-1.766726e-03	0.0	9.841300e-01	-2.311194e-03	0.0	9.799500e-01	-2.930640e-03	0.0	9.752800e-01	-3.631444e-03	0.0	9.701500e-01	-4.412625e-03	0.0	9.645400e-01	-5.280292e-03	0.0	9.584700e-01	-6.233365e-03	0.0	9.519400e-01	-7.272227e-03	0.0	9.449600e-01	-8.393908e-03	0.0	9.375400e-01	-9.593773e-03	0.0	9.296900e-01	-1.086609e-02	0.0	9.214000e-01	-1.220804e-02	0.0	9.127000e-01	-1.361074e-02	0.0	9.035800e-01	-1.507272e-02	0.0	8.940600e-01	-1.658877e-02	0.0	8.841500e-01	-1.815610e-02	0.0	8.738500e-01	-1.977361e-02	0.0	8.631800e-01	-2.143627e-02	0.0	8.521600e-01	-2.313752e-02	0.0	8.407700e-01	-2.487471e-02	0.0	8.290500e-01	-2.663345e-02	0.0	8.170100e-01	-2.840162e-02	0.0	8.046400e-01	-3.016792e-02	0.0	7.919700e-01	-3.191393e-02	0.0	7.790100e-01	-3.362378e-02	0.0	7.657800e-01	-3.528073e-02	0.0	7.522800e-01	-3.687177e-02	0.0	7.385200e-01	-3.838440e-02	0.0	7.245300e-01	-3.980643e-02	0.0	7.103200e-01	-4.113073e-02	0.0	6.958900e-01	-4.235375e-02	0.0	6.812700e-01	-4.347212e-02	0.0	6.664700e-01	-4.448693e-02	0.0	6.515000e-01	-4.540154e-02	0.0	6.363800e-01	-4.622067e-02	0.0	6.211300e-01	-4.695082e-02	0.0	6.057600e-01	-4.760016e-02	0.0	5.902800e-01	-4.817747e-02	0.0	5.747100e-01	-4.869148e-02	0.0	5.590600e-01	-4.915119e-02	0.0	5.433600e-01	-4.956464e-02	0.0	5.276100e-01	-4.993996e-02	0.0	5.118400e-01	-5.028359e-02	0.0	4.960500e-01	-5.060149e-02	0.0	4.802700e-01	-5.089775e-02	0.0	4.645100e-01	-5.117554e-02	0.0	4.487800e-01	-5.143670e-02	0.0	4.331100e-01	-5.168146e-02	0.0	4.175000e-01	-5.190932e-02	0.0	4.019700e-01	-5.211839e-02	0.0	3.865400e-01	-5.230586e-02	0.0	3.712300e-01	-5.246816e-02	0.0	3.560400e-01	-5.260130e-02	0.0	3.409900e-01	-5.270061e-02	0.0	3.261100e-01	-5.276113e-02	0.0	3.114000e-01	-5.277790e-02	0.0	2.968700e-01	-5.274582e-02	0.0	2.825500e-01	-5.265996e-02	0.0	2.684500e-01	-5.251559e-02	0.0	2.545700e-01	-5.230801e-02	0.0	2.409400e-01	-5.203324e-02	0.0	2.275700e-01	-5.168749e-02	0.0	2.144700e-01	-5.126729e-02	0.0	2.016600e-01	-5.076993e-02	0.0	1.891400e-01	-5.019238e-02	0.0	1.769300e-01	-4.953284e-02	0.0	1.650400e-01	-4.878952e-02	0.0	1.534900e-01	-4.796177e-02	0.0	1.422900e-01	-4.704883e-02	0.0	1.314400e-01	-4.604934e-02	0.0	1.209500e-01	-4.496296e-02	0.0	1.108500e-01	-4.379208e-02	0.0	1.011300e-01	-4.253503e-02	0.0	9.181000e-02	-4.119389e-02	0.0	8.290000e-02	-3.976997e-02	0.0	7.440000e-02	-3.826304e-02	0.0	6.633000e-02	-3.667657e-02	0.0	5.869000e-02	-3.501058e-02	0.0	5.149000e-02	-3.326708e-02	0.0	4.474000e-02	-3.144844e-02	0.0	3.844000e-02	-2.955433e-02	0.0	3.260000e-02	-2.758711e-02	0.0	2.723000e-02	-2.554977e-02	0.0	2.232000e-02	-2.343708e-02	0.0	1.790000e-02	-2.126113e-02	0.0	1.395000e-02	-1.901092e-02	0.0	1.049000e-02	-1.669561e-02	0.0	7.520000e-03	-1.431461e-02	0.0	5.040000e-03	-1.186637e-02	0.0	3.050000e-03	-9.347302e-03	0.0	1.560000e-03	-6.769269e-03	0.0	5.600000e-04	-4.108233e-03	0.0	6.000000e-05	-1.363608e-03	0.0	0.000000e+00	0.000000e+00	0.0	6.000000e-05	1.350236e-03	0.0	5.600000e-04	4.050826e-03	0.0	1.560000e-03	6.663226e-03	0.0	3.050000e-03	9.195473e-03	0.0	5.040000e-03	1.167583e-02	0.0	7.520000e-03	1.409653e-02	0.0	1.049000e-02	1.646478e-02	0.0	1.395000e-02	1.878581e-02	0.0	1.790000e-02	2.106403e-02	0.0	2.232000e-02	2.329392e-02	0.0	2.723000e-02	2.549065e-02	0.0	3.260000e-02	2.764558e-02	0.0	3.844000e-02	2.976800e-02	0.0	4.474000e-02	3.185849e-02	0.0	5.149000e-02	3.391797e-02	0.0	5.869000e-02	3.595015e-02	0.0	6.633000e-02	3.795531e-02	0.0	7.440000e-02	3.993367e-02	0.0	8.290000e-02	4.188739e-02	0.0	9.181000e-02	4.381361e-02	0.0	1.011300e-01	4.571359e-02	0.0	1.108500e-01	4.758588e-02	0.0	1.209500e-01	4.942683e-02	0.0	1.314400e-01	5.123782e-02	0.0	1.422900e-01	5.301272e-02	0.0	1.534900e-01	5.474871e-02	0.0	1.650400e-01	5.644398e-02	0.0	1.769300e-01	5.809472e-02	0.0	1.891400e-01	5.969553e-02	0.0	2.016600e-01	6.124223e-02	0.0	2.144700e-01	6.272926e-02	0.0	2.275700e-01	6.415328e-02	0.0	2.409400e-01	6.550849e-02	0.0	2.545700e-01	6.679020e-02	0.0	2.684500e-01	6.799357e-02	0.0	2.825500e-01	6.911218e-02	0.0	2.968700e-01	7.014214e-02	0.0	3.114000e-01	7.107860e-02	0.0	3.261100e-01	7.191555e-02	0.0	3.409900e-01	7.264840e-02	0.0	3.560400e-01	7.327286e-02	0.0	3.712300e-01	7.378330e-02	0.0	3.865400e-01	7.417483e-02	0.0	4.019700e-01	7.444303e-02	0.0	4.175000e-01	7.458295e-02	0.0	4.331100e-01	7.458992e-02	0.0	4.487800e-01	7.445955e-02	0.0	4.645100e-01	7.418745e-02	0.0	4.802700e-01	7.376991e-02	0.0	4.960500e-01	7.320341e-02	0.0	5.118400e-01	7.248482e-02	0.0	5.276100e-01	7.161270e-02	0.0	5.433600e-01	7.058503e-02	0.0	5.590600e-01	6.940265e-02	0.0	5.747100e-01	6.806549e-02	0.0	5.902800e-01	6.657731e-02	0.0	6.057600e-01	6.494175e-02	0.0	6.211300e-01	6.316504e-02	0.0	6.363800e-01	6.125402e-02	0.0	6.515000e-01	5.921698e-02	0.0	6.664700e-01	5.706516e-02	0.0	6.812700e-01	5.481151e-02	0.0	6.958900e-01	5.246892e-02	0.0	7.103200e-01	5.005129e-02	0.0	7.245300e-01	4.757686e-02	0.0	7.385200e-01	4.505941e-02	0.0	7.522800e-01	4.251466e-02	0.0	7.657800e-01	3.996213e-02	0.0	7.790100e-01	3.741749e-02	0.0	7.919700e-01	3.489399e-02	0.0	8.046400e-01	3.240819e-02	0.0	8.170100e-01	2.997405e-02	0.0	8.290500e-01	2.760884e-02	0.0	8.407700e-01	2.532127e-02	0.0	8.521600e-01	2.312328e-02	0.0	8.631800e-01	2.103157e-02	0.0	8.738500e-01	1.905016e-02	0.0	8.841500e-01	1.718895e-02	0.0	8.940600e-01	1.545535e-02	0.0	9.035800e-01	1.385019e-02	0.0	9.127000e-01	1.237271e-02	0.0	9.214000e-01	1.102010e-02	0.0	9.296900e-01	9.781662e-03	0.0	9.375400e-01	8.650401e-03	0.0	9.449600e-01	7.612208e-03	0.0	9.519400e-01	6.656126e-03	0.0	9.584700e-01	5.772587e-03	0.0	9.645400e-01	4.954359e-03	0.0	9.701500e-01	4.195689e-03	0.0	9.752800e-01	3.496291e-03	0.0	9.799500e-01	2.852720e-03	0.0	9.841300e-01	2.270023e-03	0.0	9.878400e-01	1.747228e-03	0.0	9.910500e-01	1.290667e-03	0.0	9.937800e-01	8.994899e-04	0.0	9.960200e-01	5.767420e-04	0.0	9.977600e-01	3.250644e-04	0.0	9.990000e-01	1.452495e-04	0.0	9.997500e-01	3.632890e-05	0.0	1.000000e+00	0.000000e+00	0.0	1.984229e+01	2.506660e+00	0.0	1.937166e+01	4.973800e+00	0.0	1.859553e+01	7.362490e+00	0.0	1.752613e+01	9.635070e+00	0.0	1.618034e+01	1.175571e+01	0.0	1.457937e+01	1.369094e+01	0.0	1.274848e+01	1.541027e+01	0.0	1.071654e+01	1.688656e+01	0.0	8.515590e+00	1.809654e+01	0.0	6.180340e+00	1.902113e+01	0.0	3.747630e+00	1.964575e+01	0.0	1.255810e+00	1.996053e+01	0.0	-1.255810e+00	1.996053e+01	0.0	-3.747630e+00	1.964574e+01	0.0	-6.180340e+00	1.902113e+01	0.0	-8.515590e+00	1.809654e+01	0.0	-1.071654e+01	1.688656e+01	0.0	-1.274848e+01	1.541026e+01	0.0	-1.457937e+01	1.369094e+01	0.0	-1.618034e+01	1.175570e+01	0.0	-1.752613e+01	9.635070e+00	0.0	-1.859553e+01	7.362490e+00	0.0	-1.937166e+01	4.973800e+00	0.0	-1.984229e+01	2.506660e+00	0.0	-2.000000e+01	0.000000e+00	0.0	-1.984229e+01	-2.506670e+00	0.0	-1.937166e+01	-4.973800e+00	0.0	-1.859553e+01	-7.362490e+00	0.0	-1.752613e+01	-9.635080e+00	0.0	-1.618034e+01	-1.175571e+01	0.0	-1.457937e+01	-1.369094e+01	0.0	-1.274848e+01	-1.541027e+01	0.0	-1.071653e+01	-1.688656e+01	0.0	-8.515580e+00	-1.809654e+01	0.0	-6.180340e+00	-1.902113e+01	0.0	-3.747620e+00	-1.964575e+01	0.0	-1.255810e+00	-1.996053e+01	0.0	1.255810e+00	-1.996053e+01	0.0	3.747630e+00	-1.964574e+01	0.0	6.180340e+00	-1.902113e+01	0.0	8.515590e+00	-1.809654e+01	0.0	1.071654e+01	-1.688656e+01	0.0	1.274848e+01	-1.541026e+01	0.0	1.457937e+01	-1.369094e+01	0.0	1.618034e+01	-1.175570e+01	0.0	1.752614e+01	-9.635070e+00	0.0	1.859553e+01	-7.362490e+00	0.0	1.937166e+01	-4.973790e+00	0.0	1.984229e+01	-2.506660e+00	0.0	2.000000e+01	0.000000e+00	0.0	6.093892e-02	-4.285144e-02	0.0	6.600410e-01	-5.844939e-02	0.0	4.255297e-01	8.863687e-02	0.0	6.904536e-01	6.677179e-02	0.0	3.791252e-01	-6.656260e-02	0.0	9.994589e-01	-7.258723e-04	0.0	9.985402e-01	-1.320872e-03	0.0	7.738251e-01	-4.634860e-02	0.0	6.897588e-01	-5.606349e-02	0.0	-1.367138e-03	6.233161e-03	0.0	7.467650e-01	-4.997311e-02	0.0	5.838090e-01	8.122916e-02	0.0	9.927651e-01	-3.598793e-03	0.0	9.898616e-01	-4.480982e-03	0.0	5.994275e-01	7.958836e-02	0.0	7.187102e-01	-5.322760e-02	0.0	-1.548094e-03	7.305687e-04	0.0	9.864673e-01	-5.441292e-03	0.0	9.825916e-01	-6.470515e-03	0.0	-1.358171e-03	-6.336027e-03	0.0	6.449375e-01	-5.947833e-02	0.0	8.244939e-01	-3.842106e-02	0.0	7.997632e-01	-4.246746e-02	0.0	3.482204e-01	8.660152e-02	0.0	8.478910e-01	-3.434813e-02	0.0	2.468390e-01	7.862192e-02	0.0	8.698983e-01	-3.032503e-02	0.0	1.001408e-02	2.079824e-02	0.0	8.904116e-01	-2.642047e-02	0.0	7.722818e-02	-4.682321e-02	0.0	9.093595e-01	-2.267674e-02	0.0	-1.865007e-03	-3.138557e-03	0.0	9.422484e-01	-1.580904e-02	0.0	9.266631e-01	-1.912583e-02	0.0	1.806769e-02	-2.637803e-02	0.0	4.256782e-01	-6.623083e-02	0.0	8.590773e-01	-3.232303e-02	0.0	9.560748e-01	-1.276843e-02	0.0	9.782290e-01	-7.589010e-03	0.0	9.680882e-01	-1.002215e-02	0.0	1.584746e-01	-5.900398e-02	0.0	9.000881e-01	-2.452666e-02	0.0	7.604299e-01	-4.820093e-02	0.0	9.971132e-01	-2.058079e-03	0.0	5.988429e-01	-6.197001e-02	0.0	4.413590e-01	-6.604490e-02	0.0	5.361230e-01	-6.418097e-02	0.0	4.728882e-01	-6.557080e-02	0.0	5.045102e-01	-6.495629e-02	0.0	4.886866e-01	-6.528085e-02	0.0	1.251652e-01	-5.514410e-02	0.0	2.799454e-02	-3.148915e-02	0.0	3.945492e-01	-6.649285e-02	0.0	4.640172e-02	-3.855324e-02	0.0	4.100682e-01	-6.638196e-02	0.0	3.187978e-01	-6.636792e-02	0.0	3.486567e-01	-6.657206e-02	0.0	3.367005e-02	-3.391128e-02	0.0	2.896281e-01	-6.592628e-02	0.0	9.346743e-01	-1.743395e-02	0.0	1.470184e-01	-5.780948e-02	0.0	1.948400e-01	-6.200962e-02	0.0	8.600599e-02	-4.867547e-02	0.0	1.048018e-01	-5.210645e-02	0.0	5.676108e-01	-6.321237e-02	0.0	1.702734e-01	-6.010386e-02	0.0	6.143295e-01	-6.122907e-02	0.0	8.803501e-01	-2.835590e-02	0.0	2.280418e-02	-2.897635e-02	0.0	9.951875e-01	-2.803889e-03	0.0	6.796488e-03	-1.820110e-02	0.0	1.798544e-02	2.626178e-02	0.0	9.182203e-01	-2.087471e-02	0.0	9.49388
[...]
POINT_DATA 5233

SCALARS Conservative_1 float 1
LOOKUP_TABLE default
4.312282e-01	2.182161e-01	1.784782e-01	1.489366e-01	1.296435e-01	1.148881e-01	1.031379e-01	9.360589e-02	8.578536e-02	7.930095e-02	7.387021e-02	6.929575e-02	6.539459e-02	6.205956e-02	5.918003e-02	5.668078e-02	5.449716e-02	5.245738e-02	5.054020e-02	4.879309e-02	4.738201e-02	4.619854e-02	4.522940e-02	4.444434e-02	4.376079e-02	4.324383e-02	4.277484e-02	4.243612e-02	4.210007e-02	4.181071e-02	4.153680e-02	4.118070e-02	4.085926e-02	4.037586e-02	3.989614e-02	3.926163e-02	3.862368e-02	3.784303e-02	3.707995e-02	3.620061e-02	3.536469e-02	3.444522e-02	3.359569e-02	3.269154e-02	3.187343e-02	3.103151e-02	3.027357e-02	2.952485e-02	2.884269e-02	2.819283e-02	2.759859e-02	2.703714e-02	2.650548e-02	2.603329e-02	2.556590e-02	2.516401e-02	2.475756e-02	2.440288e-02	2.403599e-02	2.371095e-02	2.336593e-02	2.305550e-02	2.271419e-02	2.240018e-02	2.204833e-02	2.171468e-02	2.133774e-02	2.097039e-02	2.055982e-02	2.013964e-02	1.968820e-02	1.920383e-02	1.870018e-02	1.814920e-02	1.757157e-02	1.695714e-02	1.629169e-02	1.559282e-02	1.484015e-02	1.404395e-02	1.318915e-02	1.228139e-02	1.131169e-02	1.027802e-02	9.172974e-03	7.996761e-03	6.739608e-03	5.400468e-03	3.983551e-03	2.476018e-03	9.267944e-04	-5.017528e-04	-2.333131e-03	-4.740959e-03	-2.074220e-03	6.290175e-03	8.077754e-03	2.521431e-03	-4.703818e-03	-1.140331e-02	-1.761598e-02	-3.116789e-02	-5.149626e-02	-6.814149e-02	-8.203457e-02	-1.034629e-01	-1.305810e-01	-1.506006e-01	-1.598219e-01	-1.632869e-01	-1.650328e-01	-1.658327e-01	-1.654830e-01	-1.636413e-01	-1.606182e-01	-1.568348e-01	-1.527772e-01	-1.488104e-01	-1.452925e-01	-1.423345e-01	-1.399216e-01	-1.381581e-01	-1.370858e-01	-1.366500e-01	-1.364882e-01	-1.363095e-01	-1.360366e-01	-1.357256e-01	-1.354442e-01	-1.352162e-01	-1.348093e-01	-1.342508e-01	-1.334348e-01	-1.324988e-01	-1.316653e-01	-1.309480e-01	-1.302822e-01	-1.288999e-01	-1.263071e-01	-1.219844e-01	-1.154384e-01	-1.049613e-01	-9.204007e-02	-8.209077e-02	-7.887336e-02	-8.032322e-02	-8.285369e-02	-8.470028e-02	-8.575948e-02	-8.637072e-02	-8.651004e-02	-8.629938e-02	-8.558815e-02	-8.457575e-02	-8.335377e-02	-8.186106e-02	-8.035786e-02	-7.864105e-02	-7.688718e-02	-7.509511e-02	-7.322271e-02	-7.144039e-02	-6.958978e-02	-6.789414e-02	-6.615840e-02	-6.461070e-02	-6.305574e-02	-6.171210e-02	-6.038237e-02	-5.927584e-02	-5.819884e-02	-5.736060e-02	-5.654338e-02	-5.598676e-02	-5.553900e-02	-5.528616e-02	-5.526380e-02	-5.545745e-02	-5.599506e-02	-5.680009e-02	-5.813462e-02	-5.978101e-02	-6.170391e-02	-6.382806e-02	-6.636231e-02	-6.923537e-02	-7.254212e-02	-7.623783e-02	-8.042282e-02	-8.515081e-02	-9.058400e-02	-9.687962e-02	-1.043081e-01	-1.131580e-01	-1.238756e-01	-1.370265e-01	-1.570419e-01	-1.750000e-01	-3.341268e-01	3.698955e-02	-1.151197e-04	-1.259741e-04	-1.361349e-04	-1.447731e-04	-1.553333e-04	-1.632651e-04	-1.720277e-04	-1.747785e-04	-1.684306e-04	-1.664151e-04	-1.718939e-04	-1.731857e-04	-1.753911e-04	-1.668801e-04	-1.476801e-04	-1.386471e-04	-1.197249e-04	-1.061429e-04	-9.127167e-05	-7.187037e-05	-4.486909e-05	-2.880184e-05	3.140129e-05	1.758569e-04	1.276417e-04	1.517403e-04	2.159132e-04	2.232087e-04	1.365361e-04	1.693680e-04	1.973567e-04	2.119093e-04	2.235149e-04	2.253921e-04	2.244993e-04	2.130060e-04	1.783817e-04	1.476975e-04	8.962998e-05	6.579144e-05	5.398614e-05	3.298908e-05	1.182229e-05	-1.008689e-05	-3.050000e-05	-4.851236e-05	-6.400997e-05	-7.888464e-05	-9.193427e-05	-1.041841e-04	9.901390e-03	3.242571e-02	-6.924018e-02	-6.114099e-02	2.173461e-02	3.361517e-01	2.408768e-01	3.758885e-02	3.394019e-02	-3.179729e-02	3.652039e-02	-6.980328e-02	1.277621e-01	1.117811e-01	-6.865928e-02	3.531916e-02	-1.339916e-02	9.969971e-02	9.026269e-02	4.056570e-03	3.165753e-02	3.971946e-02	3.860481e-02	-9.222042e-02	4.109914e-02	-1.097671e-01	4.291267e-02	-1.112308e-01	4.539970e-02	1.161680e-02	4.887891e-02	-1.801239e-03	5.729843e-02	5.279893e-02	1.659653e-03	2.280541e-02	4.193000e-02	6.320638e-02	8.266382e-02	7.126591e-02	1.647453e-02	4.701435e-02	3.709476e-02	1.829529e-01	2.927867e-02	2.322564e-02	2.643287e-02	2.414540e-02	2.521905e-02	2.466986e-02	1.496469e-02	4.381071e-03	2.206326e-02	7.917430e-03	2.243309e-02	2.052630e-02	2.110809e-02	5.637493e-03	1.995737e-02	5.492816e-02	1.601125e-02	1.771582e-02	1.238374e-02	1.376522e-02	2.779143e-02	1.691990e-02	3.007490e-02	4.404696e-02	3.058197e-03	1.499640e-01	-2.962121e-03	-1.342878e-01	5.083241e-02	6.003007e-02	7.643516e-02	-4.572772e-02	4.034794e-02	1.906440e-02	2.710522e-02	3.595876e-02	3.810402e-02	1.438793e-02	1.842432e-02	2.853758e-02	3.321555e-02	8.942776e-03	-3.582235e-03	3.081632e-04	2.140536e-02	1.732854e-02	4.547540e-01	1.875906e-02	1.310160e-02	2.023164e-02	1.937742e-02	2.366557e-02	3.467021e-02	-1.991598e-02	6.410881e-03	-7.242757e-02	-8.222659e-03	-1.413002e-01	-1.386587e-01	-1.428461e-01	-1.180548e-01	-6.846835e-02	-1.658865e-01	-7.286249e-02	-7.232375e-02	-8.214579e-02	-7.360907e-02	-5.415967e-02	-7.280417e-02	-7.042540e-02	-7.382587e-02	-6.005795e-02	-5.671487e-02	-1.279569e-01	-8.744160e-02	-7.009772e-02	-6.434340e-02	-1.219583e-01	-1.352966e-01	-1.059518e-01	-1.084484e-01	-1.146888e-01	-1.023082e-01	-7.151712e-02	-6.935847e-02	-1.157667e-01	-1.169385e-01	-6.623303e-02	-1.135516e-01	-1.120798e-01	-6.366817e-02	-7.078922e-02	-5.672276e-02	-5.879388e-02	-5.370177e-02	-5.501237e-02	-5.253733e-02	-5.287485e-02	-5.528908e-02	-5.286880e-02	-6.703759e-02	-5.833123e-02	-7.758306e-02	-5.261653e-02	-5.337927e-02	-5.319530e-02	-5.260778e-02	-5.579342e-02	-5.427872e-02	-5.991122e-02	-5.769130e-02	-6.493950e-02	-6.236553e-02	-7.170696e-02	-6.748746e-02	-1.129282e-01	-1.110094e-01	-1.152592e-01	-1.141261e-01	-1.413405e-01	-1.162574e-01	-1.266807e-01	-1.428027e-01	1.808478e-02	-6.710170e-02	6.690606e-02	3.912662e-02	2.080465e-02	2.581217e-02	-5.582319e-02	-1.385238e-01	-8.787166e-02	-1.246982e-01	-1.316087e-01	-1.072054e-01	-1.197238e-01	-9.373303e-02	-1.013386e-01	-1.045035e-01	-1.109174e-01	-1.234048e-01	-9.860232e-02	-8.311324e-02	-6.207042e-02	-3.896634e-01	-2.104063e-01	-2.810435e-01	3.084584e-02	6.815830e-03	-1.405776e-01	-7.301965e-02	1.510728e-03	-9.741098e-04	1.078906e-02	1.550739e-02	1.966151e-02	-1.112698e-01	-2.943493e-02	-2.011848e-02	1.724518e-02	3.023371e-02	4.772242e-02	-1.270756e-03	-5.813457e-02	2.954918e-02	3.431289e-02	1.059722e-01	1.800372e-02	3.906843e-02	3.723119e-02	1.146013e-02	3.855272e-03	1.596358e-02	1.129959e-03	6.363206e-02	1.434708e-02	3.098498e-02	2.808873e-02	2.046081e-02	1.083959e-02	1.909547e-02	4.410783e-02	3.498211e-02	-7.560945e-02	-1.126076e-01	-5.356133e-02	-4.902269e-02	-1.000858e-01	-5.275723e-02	-9.439892e-02	-5.046545e-02	-1.053111e-01	-6.833477e-02	-6.025111e-02	-6.624767e-02	-5.130917e-02	-1.171000e-01	-6.947542e-02	-8.869505e-02	-8.815227e-02	-7.464095e-02	-8.947824e-02	-1.022773e-01	2.878110e-02	1.566613e-02	-9.355920e-02	-9.589365e-02	-1.197960e-01	-7.752756e-02	-1.326173e-01	-5.231097e-02	1.469395e-02	-1.260923e-01	-1.791440e-01	-1.544394e-01	-5.737376e-02	-3.890988e-02	-2.905780e-03	-5.876305e-03	-1.018962e-02	2.375227e-03	1.507683e-01	9.423602e-03	1.959924e-01	1.392365e-01	-5.880731e-02	2.334977e-02	9.475123e-02	4.131784e-02	-5.750162e-02	1.202657e-01	-5.556147e-04	2.007500e-02	-5.728015e-02	3.807477e-02	-8.381069e-02	4.012068e-02	4.263721e-02	1.015928e-02	4.580699e-02	4.981723e-02	5.700066e-02	4.727589e-03	6.005803e-02	6.780817e-02	8.591734e-02	1.351820e-02	3.295954e-02	3.367025e-02	1.653796e-01	2.085846e-02	2.128335e-02	2.176588e-02	3.581021e-03	1.938942e-02	1.974299e-02	1.824394e-02	6.817623e-03	5.197362e-02	5.432717e-02	1.394639e-02	1.204041e-02	2.397429e-02	2.590645e-02	7.275573e-02	7.867438e-02	3.163209e-02	3.234679e-02	1.256632e-02	1.307300e-02	2.456910e-02	2.526134e-02	7.752957e-03	8.623645e-03	4.063975e-05	1.852558e-02	1.878932e-02	1.504933e-02	1.536586e-02	1.622403e-02	1.650005e-02	1.750467e-02	1.773696e-02	1.674632e-02	-1.386404e-02	-1.321298e-03	-1.211395e-01	-9.604473e-02	-5.993442e-02	-6.025919e-02	-6.017663e-02	-5.989513e-02	-8.259156e-02	-7.321579e-02	-5.692835e-02	-5.962240e-02	-5.932955e-02	-5.542100e-02	-5.513816e-02	-6.340047e-02	-1.146039e-01	-1.174933e-01	-8.682001e-02	-8.537808e-02	-9.510861e-02	-9.694826e-02	-9.833244e-02	-4.886226e-02	-5.024021e-02	-5.083451e-02	-4.914531e-02	-4.885075e-02	-5.359395e-02	-4.985397e-02	-4.935612e-02	-4.871025e-02	-4.879093e-02	-4.939502e-02	-4.983038e-02	-5.138426e-02	-5.209712e-02	-5.429565e-02	-5.513666e-02	-5.888879e-02	-5.949058e-02	-5.592400e-02	-5.669935e-02	-9.070034e-02	-9.173364e-02	-9.273533e-02	-9.359833e-02	-1.054697e-01	-1.211673e-01	-1.198080e-01	3.570263e-02	3.640938e-02	2.225895e-02	2.280915e-02	-4.618417e-02	-1.170856e-01	-1.048529e-01	-1.078891e-01	-7.898071e-02	-8.177343e-02	-5.580064e-02	-6.087662e-02	-6.097640e-02	-5.880017e-02	2.664608e-02	2.732364e-02	5.809646e-03	3.403879e-03	1.701444e-02	9.547922e-05	1.668772e-02	1.493606e-02	3.154102e-02	2.013210e-02	4.612025e-02	-1.017052e-01	-9.347369e-02	-6.763637e-02	-3.981897e-02	-1.106729e-01	-2.291295e-01	-2.084303e-01	1.506956e-01	6.800693e-03	3.025756e-03	-1.225102e-02	1.042953e-02	4.828876e-02	1.035151e-01	-4.883697e-02	2.548935e-01	-1.430227e-03	2.722208e-02	8.387717e-04	2.791826e-02	1.962054e-03	3.819131e-02	-2.871283e-05	1.564153e-02	3.702225e-02	2.647945e-02	1.144787e-01	9.237850e-04	-8.072461e-02	-4.985885e-02	-6.149968e-02	-4.624642e-02	-1.229266e-01	-4.991596e-02	-6.506828e-02	-4.724457e-02	-7.562757e-02	-9.463165e-02	-2.281787e-01	2.634697e-03	-2.612284e-02	-8.641283e-02	-1.889918e-02	6.298089e-02	9.960513e-03	-8.663970e-03	1.261841e-02	1.799200e-02	4.055608e-03	-6.392469e-02	-4.532997e-02	-4.438745e-02	-4.584042e-02	-8.659839e-02	-6.438377e-02	-4.880107e-02	-4.780549e-02	-5.342647e-02	-6.259647e-02	-6.896056e-02	-8.358782e-02	2.505897e-02	2.578335e-02	1.361339e-02	-7.685266e-02	-7.657158e-02	-7.567009e-02	-1.408719e-01	-5.009100e-02	-3.302079e-02	-1.856110e-03	-4.597213e-03	5.026274e-03	2.276977e-01	2.556572e-01	6.730539e-02	9.359871e-02	-4.831987e-02	1.764088e-02	-4.920429e-02	3.497393e-02	3.592493e-02	3.945911e-02	4.086086e-02	8.848757e-03	9.429988e-03	4.237713e-02	4.417146e-02	5.600007e-02	5.923796e-02	8.532347e-02	3.002712e-02	3.085968e-02	1.294069e-01	1.840139e-02	1.876015e-02	1.695949e-02	1.730836e-02	5.916077e-03	5.063352e-02	5.314021e-02	1.199123e-02	1.230958e-02	2.067955e-02	2.120972e-02	7.233514e-02	7.831336e-02	2.868546e-02	2.940300e-02	1.086817e-02	1.127883e-02	1.166611e-02	2.181209e-02	2.240216e-02	6.748645e-03	7.515803e-03	8.227015e-03	1.585938e-02	1.614358e-02	1.638096e-02	1.287765e-02	1.313730e-02	1.339938e-02	1.386639e-02	1.405840e-02	1.518123e-02	1.538283e-02	1.430415e-02	-9.936603e-02	-5.007259e-02	-5.009764e-02	-7.138396e-02	-5.005953e-02	-5.005660e-02	-5.007217e-02	-4.679770e-02	-5.292345e-02	-9.682072e-02	-9.840713e-02	-6.670981e-02	-6.780453e-02	-7.787771e-02	-7.950610e-02	-8.134967e-02	-4.467916e-02	-5.134903e-02	-4.991096e-02	-4.702671e-02	-4.629182e-02	-4.575495e-02	-4.483280e-02	-4.472457e-02	-4.454976e-02	-4.441127e-02	-4.441244e-02	-4.454571e-02	-4.493002e-02	-4.517119e-02	-4.550922e-02	-4.664257e-02	-4.932727e-02	-4.958300e-02	-4.709478e-02	-4.749979e-02	-4.800114e-02	-7.009804e-02	-7.129834e-02	-7.255980e-02	-7.373675e-02	-7.476797e-02	-9.953115e-02	-9.873785e-02	3.238063e-02	3.320918e-02	3.402600e-02	1.916700e-02	1.968097e-02	-9.668968e-02	-9.283010e-02	-8.609611e-02	-8.893607e-02	-9.189041e-02	-5.872590e-02	-4.334167e-02	-4.059805e-02	-4.212913e-02	-5.901190e-02	-5.674724e-02	-5.478135e-02	2.305646e-02	2.369289e-02	2.438589e-02	1.450415e-02	1.474549e-02	-3.941377e-04	9.375414e-03	-1.076949e-01	-7.672966e-02	1.828395e-02	-1.279125e-02	1.582738e-01	4.442478e-02	4.666582e-02	5.277916e-03	-9.350718e-02	-4.276960e-02	8.632970e-04	-6.265460e-02	6.645153e-05	-6.190641e-02	-9.944663e-02	-2.399141e-02	-4.133879e-02	-2.946698e-02	-8.968961e-02	1.012265e-01	2.973627e-02	1.100773e-02	3.649300e-03	1.467575e-02	9.046808e-03	1.561129e-02	1.294781e-02	-8.167724e-02	-4.238974e-02	-5.915686e-02	-5.674205e-02	-4.070874e-02	-6.005496e-02	-5.009665e-02	8.804627e-02	-7.801272e-02	3.532626e-02	-1.465084e-01	-8.727904e-02	1.125542e-01	6.520759e-02	2.777031e-03	2.445262e-02	-8.354876e-04	2.494719e-02	2.594770e-02	1.865356e-03	9.558356e-02	1.047158e-03	-4.220234e-02	-4.319809e-02	-3.693222e-02	-1.836353e-02	-5.335454e-02	-4.072548e-02	-4.546302e-02	-3.152818e-02	-4.273380e-02	-4.706178e-02	2.305605e-02	2.352097e-02	-7.228779e-02	-4.361292e-02	-3.548406e-02	-1.869829e-04	-3.394165e-03	4.511450e-03	6.116476e-02	8.117461e-02	-4.193456e-02	3.319621e-02	3.415098e-02	3.649401e-02	3.780676e-02	8.230397e-03	8.658085e-03	3.915832e-02	4.073255e-02	4.256276e-02	5.439969e-02	5.757350e-02	2.812630e-02	2.871462e-02	1.028879e-01	1.603181e-02	1.645540e-02	1.490923e-02	1.530358e-02	4.904837e-02	5.154974e-02	1.053363e-02	1.070397e-02	1.859012e-02	6.984056e-02	7.517476e-02	2.652770e-02	2.718073e-02	9.707663e-03	9.965659e-03	1.031520e-02	1.932060e-02	1.967745e-02	5.978762e-03	6.630700e-03	7.244705e-03	7.776239e-03	1.358525e-02	1.384794e-02	1.408358e-02	1.437789e-02	1.114709e-02	1.139561e-02	1.155595e-02	1.177923e-02	1.193600e-02	1.337469e-02	1.313622e-02	1.215203e-02	-4.299148e-02	-6.840062e-02	-6.496541e-02	-4.299613e-02	-4.290191e-02	-4.291580e-02	-4.267216e-02	-4.141869e-02	-7.874025e-02	-7.909019e-02	-5.146129e-02	-5.258559e-02	-6.133998e-02	-6.314469e-02	-6.496056e-02	-6.716536e-02	-4.900215e-02	-4.763728e-02	-4.642466e-02	-4.454905e-02	-4.379623e-02	-4.306601e-02	-4.261061e-02	-4.152281e-02	-4.138031e-02	-4.126127e-02	-4.087710e-02	-4.044627e-02	-4.074623e-02	-4.037874e-02	-4.079633e-02	-4.047890e-02	-4.100270e-02	-4.256884e-02	-4.306716e-02	-4.108328e-02	-4.177663e-02	-4.153965e-02	-4.224337e-02	-5.328317e-02	-5.432253e-02	-5.537292e-02	-5.676245e-02	-5.792227e-02	-5.897013e-02	-7.929049e-02	-7.925151e-02	3.043320e-02	3.124282e-02	3.221565e-02	1.672230e-02	1.736325e-02	1.762782e-02	-7.824437e-02	-7.533977e-02	-7.011963e-02	-6.964872e-02	-7.235752e-02	-7.484694e-02	-7.674679e-02	-3.883306e-02	-3.458505e-02	-3.023262e-02	-2.872302e-02	-5.064672e-02	-5.448777e-02	-5.256569e-02	2.047100e-02	2.087261e-02	2.172003e-02	2.215886e-02	1.232765e-02	1.255153e-02	1.272330e-02	2.744157e-03	-9.433609e-02	5.849309e-02	-1.573567e-01	2.020295e-03	2.376188e-02	8.436235e-03	1.259434e-03	-6.808236e-02	2.718371e-04	4.871692e-03	9.596627e-03	-4.885827e-02	-4.410111e-02	-2.653938e-02	-1.314629e-02	-8.557600e-03	-7.111490e-03	-8.750399e-03	2.976405e-05	9.725841e-02	-2.092659e-02	6.205970e-02	8.031505e-02	4.514721e-02	2.774124e-02	1.301519e-02	-8.380566e-02	-4.742795e-02	-5.228880e-02	-3.804682e-02	-3.803588e-02	-3.713506e-02	-3.773999e-02	-3.774602e-02	1.635688e-02	-2.006519e-02	-7.982189e-02	8.182942e-03	-1.678499e-01	-7.164182e-02	-6.401689e-03	1.724321e-01	1.842266e-01	4.332221e-02	5.435665e-03	-1.307018e-03	-5.064074e-02	5.092274e-04	-5.660760e-02	-2.215477e-02	-3.299134e-02	3.455911e-02	3.486278e-03	1.168798e-02	1.133863e-02	-7.539037e-02	-3.735151e-02	-5.439467e-02	7.490644e-02	2.225868e-02	-1.774422e-02	-2.628964e-02	-3.052821e-02	-3.687062e-02	2.088592e-02	-3.740010e-02	-3.147075e-02	-3.351399e-03	4.194134e-03	3.188089e-02	3.306445e-02	3.405536e-02	3.543919e-02	7.903143e-03	7.618527e-03	3.654492e-02	3.808891e-02	3.940442e-02	4.111718e-02	5.234438e-02	5.527517e-02	2.606023e-02	8.507438e-02	1.416028e-02	1.442941e-02	1.346013e-02	1.362609e-02	4.731869e-02	4.968724e-02	9.210707e-03	9.522542e-03	6.601310e-02	7.032361e-02	2.471152e-02	8.592232e-03	8.952117e-03	9.161609e-03	1.732569e-02	5.949765e-03	6.458102e-03	6.893510e-03	7.301139e-03	1.175121e-02	1.212162e-02	1.220365e-02	1.262455e-02	1.280491e-02	9.884685e-03	9.921395e-03	1.021600e-02	1.024550e-02	1.054604e-02	-6.480330e-02	-6.180657e-02	-5.909944e-02	-3.836590e-02	-3.776656e-02	-3.811103e-02	-3.753569e-02	-3.763171e-02	-6.176668e-02	-6.138622e-02	-3.860376e-02	-4.157534e-02	-5.147298e-02	-5.246039e-02	-5.440139e-02	-4.578956e-02	-4.480721e-02	-4.363238e-02	-4.293922e-02	-4.190174e-02	-4.131532e-02	-4.048624e-02	-3.977414e-02	-3.881405e-02	-3.844086e-02	-3.734591e-02	-3.712927e-02	-3.707055e-02	-3.732224e-02	-3.750902e-02	-4.143893e-02	-4.299353e-02	-4.280204e-02	-4.480530e-02	-4.506578e-02	-4.609936e-02	-4.745335e-02	-6.152373e-02	-6.215139e-02	2.891219e-02	3.003160e-02	3.087248e-02	1.476029e-02	1.547485e-02	-6.219290e-02	-6.025083e-02	-5.616278e-02	-5.665989e-02	-5.897027e-02	-6.087216e-02	-6.180590e-02	-6.188043e-02	-3.596884e-02	-3.380757e-02	-2.945263e-02	-2.329360e-02	-5.042607e-02	-4.886138e-02	1.841772e-02	1.960650e-02	1.059230e-02	1.092035e-02	1.095994e-02	1.128645e-02	1.865426e-01	-1.705010e-01	2.276019e-03	-9.491727e-03	8.336226e-02	5.776937e-02	-6.864600e-02	-1.713218e-02	-5.361764e-02	9.557883e-02	6.401092e-02	-4.091447e-03	5.122761e-03	2.920881e-03	-1.724434e-02	-8.116733e-02	-3.181917e-02	-2.049276e-02	3.510723e-03	5.490043e-02	1.405623e-02	-6.558102e-02	1.023918e-02	4.336704e-02	4.090496e-02	1.698579e-02	7.555953e-03	8.613825e-03	4.819427e-04	1.191263e-02	7.238987e-03	7.442331e-03	-4.378212e-02	-6.039235e-02	-4.501207e-02	-1.370584e-02	-3.630976e-02	5.219074e-02	-1.558471e-01	-6.286815e-02	-7.640783e-03	-1.975446e-03	6.769450e-02	2.215603e-02	-3.362413e-02	-3.414909e-02	-7.221321e-02	-1.250578e-03	-9.290534e-02	-5.360468e-03	1.721087e-01	5.498891e-03	1.453226e-03	1.739006e-03	-3.360487e-02	4.631605e-03	-5.173734e-02	-5.005259e-02	-3.363354e-02	-1.690016e-02	-2.490800e-02	2.086450e-02	-2.767203e-02	-2.391777e-02	4.083814e-03	3.132246e-02	3.367842e-02	7.010025e-03	3.624374e-02	3.822286e-02	4.967801e-02	7.192725e-02	1.256087e-02	4.526394e-02	4.737597e-02	8.320846e-03	6.074662e-02	2.327971e-02	2.476642e-02	7.913540e-03	8.095697e-03	1.491610e-02	5.881877e-03	6.192918e-03	6.561743e-03	6.826380e-03	1.064245e-02	1.114630e-02	1.141876e-02	8.884292e-03	9.180236e-03	-5.797786e-02	-5.571788e-02	-3.406453e-02	-3.347732e-02	-4.731259e-02	-3.171246e-02	-4.570685e-02	-3.593909e-02	-4.267432e-02	-4.076568e-02	-3.911185e-02	-3.766661e-02	-3.667124e-02	-3.513781e-02	-3.441918e-02	-3.392181e-02	-3.360017e-02	-3.341159e-02	-3.335057e-02	-3.334955e-02	-3.336362e-02	-3.450750e-02	-3.608119e-02	-3.683420e-02	-3.901398e-02	-4.019807e-02	-4.723572e-02	-4.835749e-02	2.635441e-02	2.818920e-02	2.952703e-02	1.294660e-02	1.333662e-02	-4.907356e-02	-4.789854e-02	-4.472243e-02	-4.071657e-02	-4.751562e-02	-4.903968e-02	-5.005334e-02	-4.996086e-02	-4.887885e-02	-4.949535e-02	-3.078153e-02	-2.492609e-02	-4.874718e-02	-4.690248e-02	1.590212e-02	1.816782e-02	1.945967e-02	9.518788e-03	9.865496e-03	-7.363186e-02	1.537416e-01	1.520767e-01	-1.013699e-01	6.066039e-03	-6.369475e-02	-4.263065e-02	8.487842e-02	2.715122e-03	4.136313e-03	1.054373e-01	7.361210e-02	-2.413243e-02	-1.386883e-02	-5.075332e-03	-5.174125e-02	2.104146e-02	-2.005788e-02	-8.360181e-02	3.504355e-02	4.934370e-03	-3.816799e-02	-2.695555e-02	3.156239e-03	1.035744e-02	4.126100e-02	1.624298e-02	1.327796e-02	5.044074e-02	5.266663e-02	5.248979e-03	5.526897e-03	-1.156936e-01	-5.758760e-02	-5.985686e-02	-4.861958e-02	-1.158930e-02	-3.069254e-02	1.867843e-02	6.475973e-03	-1.411054e-01	-1.420440e-01	-7.466861e-03	4.829355e-02	-5.012064e-02	4.128199e-02	5.510705e-02	-1.632280e-02	3.699515e-03	1.250348e-02	-1.735065e-03	6.583797e-03	6.674840e-03	-5.547097e-02	-1.050857e-02	4.634347e-02	5.771860e-02	1.991299e-02	-5.470429e-03	1.223111e-01	6.290006e-03	1.766132e-03	2.653995e-03	-3.073027e-02	4.545505e-03	-4.730950e-02	-3.075346e-02	-1.238892e-02	-3.072639e-02	-2.139960e-02	-1.883801e-02	3.024491e-02	3.270786e-02	3.723740e-02	3.955357e-02	6.210522e-02	1.089980e-02	4.283906e-02	4.451414e-02	9.982900e-03	2.523247e-02	2.676191e-02	2.226374e-02	6.740691e-03	6.967174e-03	7.053310e-03	5.758834e-03	9.059627e-03	9.519302e-03	7.206818e-03	7.421122e-03	1.741371e-02	-5.355572e-02	-3.073819e-02	-3.070718e-02	-3.952089e-02	-4.116550e-02	-3.909407e-02	-3.392928e-02	-3.726690e-02	-3.581039e-02	-3.473663e-02	-3.322487e-02	-3.253588e-02	-3.193915e-02	-3.149865e-02	-3.118660e-02	-3.096651e-02	-3.083200e-02	-1.787548e-02	-2.428422e-02	-2.753758e-02	-2.961551e-0