# vtk DataFile Version 3.0
vtk output
ASCII
DATASET UNSTRUCTURED_GRID
POINTS 5233 float
9.997500e-01	-3.632909e-05	0.0	9.990000e-01	-1.452618e-04	0.0	9.977600e-01	-3.252008e-04	0.0	9.960200e-01	-5.774943e-04	0.0	9.937800e-01	-9.022942e-04	0.0	9.910500e-01	-1.298763e-03	0.0	9.878400e-01	-1.766726e-03	0.0	9.841300e-01	-2.311194e-03	0.0	9.799500e-01	-2.930640e-03	0.0	9.752800e-01	-3.631444e-03	0.0	9.701500e-01	-4.412625e-03	0.0	9.645400e-01	-5.280292e-03	0.0	9.584700e-01	-6.233365e-03	0.0	9.519400e-01	-7.272227e-03	0.0	9.449600e-01	-8.393908e-03	0.0	9.375400e-01	-9.593773e-03	0.0	9.296900e-01	-1.086609e-02	0.0	9.214000e-01	-1.220804e-02	0.0	9.127000e-01	-1.361074e-02	0.0	9.035800e-01	-1.507272e-02	0.0	8.940600e-01	-1.658877e-02	0.0	8.841500e-01	-1.815610e-02	0.0	8.738500e-01	-1.977361e-02	0.0	8.631800e-01	-2.143627e-02	0.0	8.521600e-01	-2.313752e-02	0.0	8.407700e-01	-2.487471e-02	0.0	8.290500e-01	-2.663345e-02	0.0	8.170100e-01	-2.840162e-02	0.0	8.046400e-01	-3.016792e-02	0.0	7.919700e-01	-3.191393e-02	0.0	7.790100e-01	-3.362378e-02	0.0	7.657800e-01	-3.528073e-02	0.0	7.522800e-01	-3.687177e-02	0.0	7.385200e-01	-3.838440e-02	0.0	7.245300e-01	-3.980643e-02	0.0	7.103200e-01	-4.113073e-02	0.0	6.958900e-01	-4.235375e-02	0.0	6.812700e-01	-4.347212e-02	0.0	6.664700e-01	-4.448693e-02	0.0	6.515000e-01	-4.540154e-02	0.0	6.363800e-01	-4.622067e-02	0.0	6.211300e-01	-4.695082e-02	0.0	6.057600e-01	-4.760016e-02	0.0	5.902800e-01	-4.817747e-02	0.0	5.747100e-01	-4.869148e-02	0.0	5.590600e-01	-4.915119e-02	0.0	5.433600e-01	-4.956464e-02	0.0	5.276100e-01	-4.993996e-02	0.0	5.118400e-01	-5.028359e-02	0.0	4.960500e-01	-5.060149e-02	0.0	4.802700e-01	-5.089775e-02	0.0	4.645100e-01	-5.117554e-02	0.0	4.487800e-01	-5.143670e-02	0.0	4.331100e-01	-5.168146e-02	0.0	4.175000e-01	-5.190932e-02	0.0	4.019700e-01	-5.211839e-02	0.0	3.865400e-01	-5.230586e-02	0.0	3.712300e-01	-5.246816e-02	0.0	3.560400e-01	-5.260130e-02	0.0	3.409900e-01	-5.270061e-02	0.0	3.261100e-01	-5.276113e-02	0.0	3.114000e-01	-5.277790e-02	0.0	2.968700e-01	-5.274582e-02	0.0	2.825500e-01	-5.265996e-02	0.0	2.684500e-01	-5.251559e-02	0.0	2.545700e-01	-5.230801e-02	0.0	2.409400e-01	-5.203324e-02	0.0	2.275700e-01	-5.168749e-02	0.0	2.144700e-01	-5.126729e-02	0.0	2.016600e-01	-5.076993e-02	0.0	1.891400e-01	-5.019238e-02	0.0	1.769300e-01	-4.953284e-02	0.0	1.650400e-01	-4.878952e-02	0.0	1.534900e-01	-4.796177e-02	0.0	1.422900e-01	-4.704883e-02	0.0	1.314400e-01	-4.604934e-02	0.0	1.209500e-01	-4.496296e-02	0.0	1.108500e-01	-4.379208e-02	0.0	1.011300e-01	-4.253503e-02	0.0	9.181000e-02	-4.119389e-02	0.0	8.290000e-02	-3.976997e-02	0.0	7.440000e-02	-3.826304e-02	0.0	6.633000e-02	-3.667657e-02	0.0	5.869000e-02	-3.501058e-02	0.0	5.149000e-02	-3.326708e-02	0.0	4.474000e-02	-3.144844e-02	0.0	3.844000e-02	-2.955433e-02	0.0	3.260000e-02	-2.758711e-02	0.0	2.723000e-02	-2.554977e-02	0.0	2.232000e-02	-2.343708e-02	0.0	1.790000e-02	-2.126113e-02	0.0	1.395000e-02	-1.901092e-02	0.0	1.049000e-02	-1.669561e-02	0.0	7.520000e-03	-1.431461e-02	0.0	5.040000e-03	-1.186637e-02	0.0	3.050000e-03	-9.347302e-03	0.0	1.560000e-03	-6.769269e-03	0.0	5.600000e-04	-4.108233e-03	0.0	6.000000e-05	-1.363608e-03	0.0	0.000000e+00	0.000000e+00	0.0	6.000000e-05	1.350236e-03	0.0	5.600000e-04	4.050826e-03	0.0	1.560000e-03	6.663226e-03	0.0	3.050000e-03	9.195473e-03	0.0	5.040000e-03	1.167583e-02	0.0	7.520000e-03	1.409653e-02	0.0	1.049000e-02	1.646478e-02	0.0	1.395000e-02	1.878581e-02	0.0	1.790000e-02	2.106403e-02	0.0	2.232000e-02	2.329392e-02	0.0	2.723000e-02	2.549065e-02	0.0	3.260000e-02	2.764558e-02	0.0	3.844000e-02	2.976800e-02	0.0	4.474000e-02	3.185849e-02	0.0	5.149000e-02	3.391797e-02	0.0	5.869000e-02	3.595015e-02	0.0	6.633000e-02	3.795531e-02	0.0	7.440000e-02	3.993367e-02	0.0	8.290000e-02	4.188739e-02	0.0	9.181000e-02	4.381361e-02	0.0	1.011300e-01	4.571359e-02	0.0	1.108500e-01	4.758588e-02	0.0	1.209500e-01	4.942683e-02	0.0	1.314400e-01	5.123782e-02	0.0	1.422900e-01	5.301272e-02	0.0	1.534900e-01	5.474871e-02	0.0	1.650400e-01	5.644398e-02	0.0	1.769300e-01	5.809472e-02	0.0	1.891400e-01	5.969553e-02	0.0	2.016600e-01	6.124223e-02	0.0	2.144700e-01	6.272926e-02	0.0	2.275700e-01	6.415328e-02	0.0	2.409400e-01	6.550849e-02	0.0	2.545700e-01	6.679020e-02	0.0	2.684500e-01	6.799357e-02	0.0	2.825500e-01	6.911218e-02	0.0	2.968700e-01	7.014214e-02	0.0	3.114000e-01	7.107860e-02	0.0	3.261100e-01	7.191555e-02	0.0	3.409900e-01	7.264840e-02	0.0	3.560400e-01	7.327286e-02	0.0	3.712300e-01	7.378330e-02	0.0	3.865400e-01	7.417483e-02	0.0	4.019700e-01	7.444303e-02	0.0	4.175000e-01	7.458295e-02	0.0	4.331100e-01	7.458992e-02	0.0	4.487800e-01	7.445955e-02	0.0	4.645100e-01	7.418745e-02	0.0	4.802700e-01	7.376991e-02	0.0	4.960500e-01	7.320341e-02	0.0	5.118400e-01	7.248482e-02	0.0	5.276100e-01	7.161270e-02	0.0	5.433600e-01	7.058503e-02	0.0	5.590600e-01	6.940265e-02	0.0	5.747100e-01	6.806549e-02	0.0	5.902800e-01	6.657731e-02	0.0	6.057600e-01	6.494175e-02	0.0	6.211300e-01	6.316504e-02	0.0	6.363800e-01	6.125402e-02	0.0	6.515000e-01	5.921698e-02	0.0	6.664700e-01	5.706516e-02	0.0	6.812700e-01	5.481151e-02	0.0	6.958900e-01	5.246892e-02	0.0	7.103200e-01	5.005129e-02	0.0	7.245300e-01	4.757686e-02	0.0	7.385200e-01	4.505941e-02	0.0	7.522800e-01	4.251466e-02	0.0	7.657800e-01	3.996213e-02	0.0	7.790100e-01	3.741749e-02	0.0	7.919700e-01	3.489399e-02	0.0	8.046400e-01	3.240819e-02	0.0	8.170100e-01	2.997405e-02	0.0	8.290500e-01	2.760884e-02	0.0	8.407700e-01	2.532127e-02	0.0	8.521600e-01	2.312328e-02	0.0	8.631800e-01	2.103157e-02	0.0	8.738500e-01	1.905016e-02	0.0	8.841500e-01	1.718895e-02	0.0	8.940600e-01	1.545535e-02	0.0	9.035800e-01	1.385019e-02	0.0	9.127000e-01	1.237271e-02	0.0	9.214000e-01	1.102010e-02	0.0	9.296900e-01	9.781662e-03	0.0	9.375400e-01	8.650401e-03	0.0	9.449600e-01	7.612208e-03	0.0	9.519400e-01	6.656126e-03	0.0	9.584700e-01	5.772587e-03	0.0	9.645400e-01	4.954359e-03	0.0	9.701500e-01	4.195689e-03	0.0	9.752800e-01	3.496291e-03	0.0	9.799500e-01	2.852720e-03	0.0	9.841300e-01	2.270023e-03	0.0	9.878400e-01	1.747228e-03	0.0	9.910500e-01	1.290667e-03	0.0	9.937800e-01	8.994899e-04	0.0	9.960200e-01	5.767420e-04	0.0	9.977600e-01	3.250644e-04	0.0	9.990000e-01	1.452495e-04	0.0	9.997500e-01	3.632890e-05	0.0	1.000000e+00	0.000000e+00	0.0	1.984229e+01	2.506660e+00	0.0	1.937166e+01	4.973800e+00	0.0	1.859553e+01	7.362490e+00	0.0	1.752613e+01	9.635070e+00	0.0	1.618034e+01	1.175571e+01	0.0	1.457937e+01	1.369094e+01	0.0	1.274848e+01	1.541027e+01	0.0	1.071654e+01	1.688656e+01	0.0	8.515590e+00	1.809654e+01	0.0	6.180340e+00	1.902113e+01	0.0	3.747630e+00	1.964575e+01	0.0	1.255810e+00	1.996053e+01	0.0	-1.255810e+00	1.996053e+01	0.0	-3.747630e+00	1.964574e+01	0.0	-6.180340e+00	1.902113e+01	0.0	-8.515590e+00	1.809654e+01	0.0	-1.071654e+01	1.688656e+01	0.0	-1.274848e+01	1.541026e+01	0.0	-1.457937e+01	1.369094e+01	0.0	-1.618034e+01	1.175570e+01	0.0	-1.752613e+01	9.635070e+00	0.0	-1.859553e+01	7.362490e+00	0.0	-1.937166e+01	4.973800e+00	0.0	-1.984229e+01	2.506660e+00	0.0	-2.000000e+01	0.000000e+00	0.0	-1.984229e+01	-2.506670e+00	0.0	-1.937166e+01	-4.973800e+00	0.0	-1.859553e+01	-7.362490e+00	0.0	-1.752613e+01	-9.635080e+00	0.0	-1.618034e+01	-1.175571e+01	0.0	-1.457937e+01	-1.369094e+01	0.0	-1.274848e+01	-1.541027e+01	0.0	-1.071653e+01	-1.688656e+01	0.0	-8.515580e+00	-1.809654e+01	0.0	-6.180340e+00	-1.902113e+01	0.0	-3.747620e+00	-1.964575e+01	0.0	-1.255810e+00	-1.996053e+01	0.0	1.255810e+00	-1.996053e+01	0.0	3.747630e+00	-1.964574e+01	0.0	6.180340e+00	-1.902113e+01	0.0	8.515590e+00	-1.809654e+01	0.0	1.071654e+01	-1.688656e+01	0.0	1.274848e+01	-1.541026e+01	0.0	1.457937e+01	-1.369094e+01	0.0	1.618034e+01	-1.175570e+01	0.0	1.752614e+01	-9.635070e+00	0.0	1.859553e+01	-7.362490e+00	0.0	1.937166e+01	-4.973790e+00	0.0	1.984229e+01	-2.506660e+00	0.0	2.000000e+01	0.000000e+00	0.0	6.093892e-02	-4.285144e-02	0.0	6.600410e-01	-5.844939e-02	0.0	4.255297e-01	8.863687e-02	0.0	6.904536e-01	6.677179e-02	0.0	3.791252e-01	-6.656260e-02	0.0	9.994589e-01	-7.258723e-04	0.0	9.985402e-01	-1.320872e-03	0.0	7.738251e-01	-4.634860e-02	0.0	6.897588e-01	-5.606349e-02	0.0	-1.367138e-03	6.233161e-03	0.0	7.467650e-01	-4.997311e-02	0.0	5.838090e-01	8.122916e-02	0.0	9.927651e-01	-3.598793e-03	0.0	9.898616e-01	-4.480982e-03	0.0	5.994275e-01	7.958836e-02	0.0	7.187102e-01	-5.322760e-02	0.0	-1.548094e-03	7.305687e-04	0.0	9.864673e-01	-5.441292e-03	0.0	9.825916e-01	-6.470515e-03	0.0	-1.358171e-03	-6.336027e-03	0.0	6.449375e-01	-5.947833e-02	0.0	8.244939e-01	-3.842106e-02	0.0	7.997632e-01	-4.246746e-02	0.0	3.482204e-01	8.660152e-02	0.0	8.478910e-01	-3.434813e-02	0.0	2.468390e-01	7.862192e-02	0.0	8.698983e-01	-3.032503e-02	0.0	1.001408e-02	2.079824e-02	0.0	8.904116e-01	-2.642047e-02	0.0	7.722818e-02	-4.682321e-02	0.0	9.093595e-01	-2.267674e-02	0.0	-1.865007e-03	-3.138557e-03	0.0	9.422484e-01	-1.580904e-02	0.0	9.266631e-01	-1.912583e-02	0.0	1.806769e-02	-2.637803e-02	0.0	4.256782e-01	-6.623083e-02	0.0	8.590773e-01	-3.232303e-02	0.0	9.560748e-01	-1.276843e-02	0.0	9.782290e-01	-7.589010e-03	0.0	9.680882e-01	-1.002215e-02	0.0	1.584746e-01	-5.900398e-02	0.0	9.000881e-01	-2.452666e-02	0.0	7.604299e-01	-4.820093e-02	0.0	9.971132e-01	-2.058079e-03	0.0	5.988429e-01	-6.197001e-02	0.0	4.413590e-01	-6.604490e-02	0.0	5.361230e-01	-6.418097e-02	0.0	4.728882e-01	-6.557080e-02	0.0	5.045102e-01	-6.495629e-02	0.0	4.886866e-01	-6.528085e-02	0.0	1.251652e-01	-5.514410e-02	0.0	2.799454e-02	-3.148915e-02	0.0	3.945492e-01	-6.649285e-02	0.0	4.640172e-02	-3.855324e-02	0.0	4.100682e-01	-6.638196e-02	0.0	3.187978e-01	-6.636792e-02	0.0	3.486567e-01	-6.657206e-02	0.0	3.367005e-02	-3.391128e-02	0.0	2.896281e-01	-6.592628e-02	0.0	9.346743e-01	-1.743395e-02	0.0	1.470184e-01	-5.780948e-02	0.0	1.948400e-01	-6.200962e-02	0.0	8.600599e-02	-4.867547e-02	0.0	1.048018e-01	-5.210645e-02	0.0	5.676108e-01	-6.321237e-02	0.0	1.702734e-01	-6.010386e-02	0.0	6.143295e-01	-6.122907e-02	0.0	8.803501e-01	-2.835590e-02	0.0	2.280418e-02	-2.897635e-02	0.0	9.951875e-01	-2.803889e-03	0.0	6.796488e-03	-1.820110e-02	0.0	1.798544e-02	2.626178e-02	0.0	9.182203e-01	-2.087471e-02	0.0	9.49388
[...]
POINT_DATA 5233

SCALARS Conservative_1 float 1
LOOKUP_TABLE default
1.801743e-02	8.383561e-03	6.621244e-03	5.351515e-03	4.541002e-03	3.933212e-03	3.458569e-03	3.081251e-03	2.779898e-03	2.538359e-03	2.345371e-03	2.192550e-03	2.072879e-03	1.981052e-03	1.912309e-03	1.861533e-03	1.826667e-03	1.798962e-03	1.778264e-03	1.765193e-03	1.765539e-03	1.773831e-03	1.792258e-03	1.822963e-03	1.862206e-03	1.913664e-03	1.970609e-03	2.036230e-03	2.102971e-03	2.170211e-03	2.235110e-03	2.289562e-03	2.337434e-03	2.366551e-03	2.384655e-03	2.382462e-03	2.368268e-03	2.335328e-03	2.292544e-03	2.234381e-03	2.171073e-03	2.097611e-03	2.023530e-03	1.944419e-03	1.868508e-03	1.791899e-03	1.720754e-03	1.652194e-03	1.589831e-03	1.532249e-03	1.480911e-03	1.434701e-03	1.393601e-03	1.358723e-03	1.327249e-03	1.301671e-03	1.278294e-03	1.259324e-03	1.241177e-03	1.225997e-03	1.210303e-03	1.195928e-03	1.179497e-03	1.163167e-03	1.143353e-03	1.122295e-03	1.096438e-03	1.067838e-03	1.033603e-03	9.948996e-04	9.501806e-04	8.990430e-04	8.415108e-04	7.760166e-04	7.031147e-04	6.216120e-04	5.305369e-04	4.302805e-04	3.190833e-04	1.969669e-04	6.221088e-05	-8.548800e-05	-2.476127e-04	-4.251593e-04	-6.200663e-04	-8.329882e-04	-1.066658e-03	-1.321476e-03	-1.599308e-03	-1.899586e-03	-2.220346e-03	-2.547513e-03	-2.882855e-03	-3.225205e-03	-3.359462e-03	-3.101105e-03	-2.815125e-03	-2.626766e-03	-2.264589e-03	-1.903946e-03	-1.596229e-03	-7.962160e-04	1.758188e-04	1.776914e-04	9.296595e-04	4.507678e-03	8.458780e-03	9.737399e-03	8.874490e-03	7.630075e-03	6.616789e-03	5.731652e-03	4.908385e-03	4.167534e-03	3.519246e-03	2.965556e-03	2.496088e-03	2.093093e-03	1.750975e-03	1.455704e-03	1.192697e-03	9.519908e-04	7.227594e-04	5.051838e-04	3.065835e-04	1.276280e-04	-3.267234e-05	-1.811567e-04	-3.197277e-04	-4.526862e-04	-5.772236e-04	-6.951969e-04	-8.005395e-04	-8.931741e-04	-9.725395e-04	-1.041229e-03	-1.106669e-03	-1.162343e-03	-1.206886e-03	-1.213731e-03	-1.180203e-03	-1.080429e-03	-8.801364e-04	-5.292664e-04	-1.417667e-04	1.172403e-04	1.647877e-04	8.671419e-05	-1.326703e-05	-1.121799e-04	-2.086716e-04	-3.160028e-04	-4.258651e-04	-5.410086e-04	-6.609118e-04	-7.800172e-04	-9.072648e-04	-1.031186e-03	-1.156380e-03	-1.282298e-03	-1.403917e-03	-1.527943e-03	-1.645128e-03	-1.764471e-03	-1.875839e-03	-1.989050e-03	-2.094084e-03	-2.200490e-03	-2.298771e-03	-2.398611e-03	-2.491073e-03	-2.585980e-03	-2.673155e-03	-2.763465e-03	-2.850990e-03	-2.937707e-03	-3.025596e-03	-3.113614e-03	-3.209173e-03	-3.308546e-03	-3.422148e-03	-3.539324e-03	-3.660592e-03	-3.785455e-03	-3.926142e-03	-4.081681e-03	-4.258372e-03	-4.456115e-03	-4.680473e-03	-4.934820e-03	-5.226386e-03	-5.562239e-03	-5.953682e-03	-6.413179e-03	-6.960391e-03	-7.618983e-03	-8.589166e-03	-9.435460e-03	-1.664052e-02	2.288862e-07	-1.209316e-05	-1.192982e-05	-1.160969e-05	-1.125637e-05	-1.076331e-05	-1.012463e-05	-9.277244e-06	-8.159161e-06	-6.658988e-06	-5.078209e-06	-3.077625e-06	-5.673760e-07	2.319723e-06	5.245643e-06	7.477286e-06	9.125020e-06	1.007706e-05	1.031592e-05	1.011218e-05	9.878317e-06	9.894107e-06	8.435633e-06	1.031923e-05	1.989347e-05	1.294622e-05	1.161829e-05	1.487587e-05	1.309337e-05	2.569393e-06	2.858728e-06	2.977772e-06	2.420791e-06	2.096463e-06	1.452439e-06	6.116129e-07	-4.918779e-07	-1.506465e-06	-2.932310e-06	-4.076995e-06	-5.594922e-06	-7.289945e-06	-8.601157e-06	-9.704806e-06	-1.055104e-05	-1.119807e-05	-1.166718e-05	-1.198206e-05	-1.213656e-05	-1.213931e-05	-1.219653e-05	-4.669165e-04	2.000230e-03	4.319082e-04	-1.309530e-03	1.111566e-03	1.360522e-02	9.376685e-03	2.028886e-03	2.079387e-03	-7.465791e-04	2.092661e-03	-3.792541e-04	4.478601e-03	3.817342e-03	-5.073060e-04	2.112007e-03	-1.829101e-03	3.328382e-03	2.956017e-03	-2.674250e-03	1.947789e-03	1.838215e-03	1.936391e-03	-4.101115e-04	1.755970e-03	-1.577773e-04	1.705023e-03	7.691937e-03	1.696302e-03	-1.508692e-04	1.730911e-03	-2.447035e-03	1.856402e-03	1.778248e-03	-2.095234e-03	1.182322e-03	1.725327e-03	2.003395e-03	2.665245e-03	2.255683e-03	6.500137e-04	1.709247e-03	2.066962e-03	6.835884e-03	1.755473e-03	1.213369e-03	1.493942e-03	1.287882e-03	1.381942e-03	1.332811e-03	4.227915e-04	-1.542927e-03	1.131871e-03	-8.446798e-04	1.155923e-03	1.044634e-03	1.076159e-03	-1.291506e-03	1.011322e-03	1.811503e-03	5.827965e-04	8.107058e-04	-1.331201e-05	2.259921e-04	1.620686e-03	7.104315e-04	1.823445e-03	1.694545e-03	-1.811191e-03	5.416080e-03	-2.960450e-03	7.397027e-03	1.754124e-03	1.919114e-03	2.436138e-03	-2.619270e-04	1.793060e-03	9.470462e-04	1.556338e-03	2.109552e-03	1.985425e-03	3.294271e-04	8.881187e-04	1.688494e-03	2.046040e-03	-6.478605e-04	-3.188849e-03	-2.385947e-03	1.092659e-03	7.636421e-04	1.885866e-02	9.199742e-04	1.121704e-04	1.028021e-03	9.715166e-04	1.248198e-03	2.103067e-03	-1.493153e-03	-2.868409e-03	-2.215892e-05	-2.092395e-03	5.866560e-03	3.433785e-03	4.537891e-03	1.326372e-03	3.505098e-04	-8.988132e-03	8.313642e-05	3.368344e-04	-4.784174e-03	-4.324114e-03	-3.087309e-03	2.633062e-04	4.359023e-04	-1.432077e-04	-3.563504e-03	-3.325742e-03	2.279981e-03	-5.068416e-03	-4.134598e-03	-3.818762e-03	1.754882e-03	2.987813e-03	-3.396384e-04	-2.288820e-04	4.913176e-04	-4.168675e-04	3.958104e-04	1.158394e-04	7.782280e-04	1.130000e-03	-7.746919e-04	2.426603e-04	2.301261e-05	-1.044004e-03	-2.527387e-04	-1.812428e-03	-1.566779e-03	-2.265182e-03	-2.045186e-03	-2.677173e-03	-2.475857e-03	-3.203545e-03	-2.877258e-03	-3.968067e-03	-3.446750e-03	-4.538451e-03	-2.777458e-03	-2.980234e-03	-2.370157e-03	-2.576138e-03	-1.929227e-03	-2.155443e-03	-1.438177e-03	-1.689831e-03	-9.086939e-04	-1.176330e-03	-1.343492e-04	-6.405744e-04	1.282059e-04	-7.296503e-05	6.278950e-04	3.629949e-04	3.949675e-03	9.460260e-04	8.180470e-03	5.186923e-03	8.522288e-04	9.529953e-04	2.113504e-03	1.885965e-03	1.059871e-03	1.436084e-03	-4.524449e-04	6.571921e-03	4.699558e-03	2.000339e-03	2.605800e-03	-2.896834e-04	1.533632e-03	-5.402954e-03	-5.802068e-03	-3.838562e-04	-6.295042e-03	-6.924415e-03	-4.322431e-04	-3.267831e-04	-3.687181e-03	-1.935846e-02	-1.107626e-02	-1.434416e-02	1.886918e-03	-1.058987e-03	-7.770477e-03	1.773973e-04	-3.137400e-03	-2.671258e-03	-3.018226e-04	5.070991e-04	9.921325e-04	2.790419e-03	-9.336360e-04	-1.484563e-03	8.438267e-04	1.829973e-03	1.633692e-03	-2.714005e-03	-2.909756e-07	1.805643e-03	1.787404e-03	3.580323e-03	8.977823e-04	1.606818e-03	1.655835e-03	-8.969741e-05	-2.679175e-03	7.105937e-04	-2.231808e-03	1.994210e-03	4.616342e-04	1.849147e-03	1.727179e-03	1.072044e-03	-2.166656e-04	9.687308e-04	1.594263e-03	1.755272e-03	4.541367e-03	6.306732e-03	-8.437061e-04	-2.482174e-03	1.894222e-03	-9.833607e-04	1.128167e-03	-2.806479e-03	-6.031281e-03	3.284195e-04	4.436280e-04	-3.947437e-03	-2.916038e-03	-6.628689e-03	-4.126823e-03	-5.166430e-03	5.351932e-04	2.895370e-04	6.118676e-04	2.082061e-03	1.768150e-03	6.716904e-04	6.501859e-03	1.401872e-03	3.864262e-03	-4.567356e-03	-7.398455e-03	-3.025898e-03	5.230568e-04	-7.543247e-03	-9.657912e-03	-8.463304e-03	1.418869e-03	-6.798217e-04	-2.939758e-03	-2.256102e-03	-1.999017e-03	-1.976465e-03	4.973394e-03	-5.080163e-04	7.368938e-03	4.957626e-03	7.921920e-04	1.334621e-03	3.130965e-03	1.585255e-03	-1.375558e-04	4.165121e-03	-2.512339e-03	1.041178e-03	8.390031e-04	1.626838e-03	3.549798e-04	1.591418e-03	1.586107e-03	-3.560574e-04	1.610466e-03	1.665352e-03	1.808625e-03	-1.487153e-03	1.889045e-03	2.128117e-03	2.786325e-03	3.136804e-04	1.834912e-03	1.815835e-03	6.063400e-03	1.105876e-03	1.143517e-03	1.186366e-03	-1.726656e-03	9.896380e-04	1.014929e-03	9.135657e-04	-1.050731e-03	1.700591e-03	1.747163e-03	3.914847e-04	2.639968e-05	1.391726e-03	1.564746e-03	2.298198e-03	2.512616e-03	1.853013e-03	1.851351e-03	1.313745e-04	2.278864e-04	1.447663e-03	1.508180e-03	-8.555427e-04	-6.742155e-04	-2.480041e-03	9.312403e-04	9.485900e-04	5.791567e-04	6.282384e-04	7.437560e-04	7.740582e-04	8.633464e-04	8.802502e-04	7.998440e-04	-1.822149e-03	-3.034602e-03	4.314733e-03	-5.552760e-03	3.485132e-04	5.310078e-04	5.965479e-04	6.428885e-04	-4.840865e-03	-4.332284e-03	-3.390314e-03	6.717700e-04	7.195502e-04	7.735654e-04	-3.264462e-03	-3.786780e-03	3.099721e-03	3.458313e-03	4.651987e-04	4.067378e-04	1.258893e-03	1.555291e-03	1.718751e-03	-2.027062e-03	-1.529909e-03	-1.399853e-03	-1.910561e-03	-2.372984e-03	-3.142590e-03	-2.699759e-03	-2.590532e-03	-2.258115e-03	-2.146709e-03	-1.785642e-03	-1.661999e-03	-1.262003e-03	-1.126108e-03	-6.986633e-04	-5.573133e-04	1.235504e-04	2.409587e-04	-4.138871e-04	-2.730159e-04	6.974330e-04	7.942312e-04	8.966473e-04	1.009005e-03	6.742627e-03	4.803365e-03	5.309330e-03	1.722241e-03	1.686459e-03	1.232188e-03	1.282926e-03	-4.669688e-04	5.811293e-03	2.290648e-03	2.523293e-03	2.903798e-04	3.178413e-04	6.014017e-04	4.356417e-04	-3.645303e-03	-3.512906e-03	1.623794e-03	1.675672e-03	-1.261039e-03	-2.891817e-03	8.239053e-04	-2.525135e-03	8.415025e-04	7.053543e-04	1.572431e-03	1.145758e-03	1.519971e-03	-5.896197e-03	-5.465227e-03	-4.062886e-03	-1.229660e-04	-6.361063e-03	-1.200647e-02	-1.117958e-02	5.377381e-03	-1.468916e-03	-1.859516e-03	-1.922137e-03	-1.655882e-04	1.558861e-03	3.450982e-03	2.943011e-04	9.938682e-03	-2.691907e-03	1.612857e-03	-2.835908e-03	1.623076e-03	-2.081329e-03	1.451263e-03	-2.503139e-03	7.634291e-04	1.457303e-03	1.591022e-03	3.888669e-03	-2.301631e-03	-4.784766e-03	6.323658e-04	-3.711342e-03	-5.670527e-04	-6.986006e-03	7.278459e-04	9.324032e-04	9.475669e-04	1.706244e-03	3.278724e-03	-1.203119e-02	-2.684690e-03	-1.134114e-03	5.547650e-03	-1.550773e-03	1.943773e-03	-2.809872e-04	-2.109558e-03	3.412338e-04	9.484117e-04	-1.637889e-03	3.891030e-03	-2.275359e-03	-1.803548e-03	-7.148243e-04	-5.100523e-03	-3.877986e-03	-2.821037e-03	-2.711408e-03	8.778437e-04	8.833815e-04	1.128466e-03	2.417841e-03	1.529262e-03	1.564907e-03	5.367043e-04	5.224394e-03	1.835116e-03	-4.509222e-03	-7.875399e-03	1.667604e-03	-8.011523e-04	-2.835819e-03	-2.349461e-03	-1.425730e-03	8.579116e-03	9.899971e-03	2.086379e-03	3.061053e-03	1.626959e-04	9.180913e-04	1.093289e-03	1.486495e-03	1.467965e-03	1.451310e-03	1.458345e-03	-5.461281e-04	-4.080521e-04	1.469333e-03	1.491702e-03	1.736890e-03	1.828351e-03	2.741872e-03	1.609777e-03	1.597931e-03	4.493407e-03	9.836810e-04	1.017940e-03	8.632071e-04	8.901867e-04	-1.225719e-03	1.606337e-03	1.663424e-03	2.052785e-04	2.763918e-04	1.195122e-03	1.243781e-03	2.261376e-03	2.478405e-03	1.630690e-03	1.627251e-03	-5.958187e-05	3.757464e-05	1.264752e-04	1.295831e-03	1.345737e-03	-1.037291e-03	-8.603055e-04	-6.955252e-04	7.804148e-04	8.007481e-04	8.190283e-04	3.985390e-04	4.498972e-04	4.969847e-04	5.745647e-04	6.052872e-04	7.264418e-04	7.439301e-04	6.358098e-04	4.193137e-03	7.992176e-04	8.490430e-04	-4.272434e-03	8.777844e-04	9.102334e-04	9.771609e-04	1.232843e-03	-3.169146e-03	3.560795e-03	3.870615e-03	9.901792e-04	1.060175e-03	1.968775e-03	2.107342e-03	2.257028e-03	-1.284195e-03	-3.049410e-03	-2.930097e-03	-2.605421e-03	-2.494136e-03	-2.386044e-03	-2.154259e-03	-2.045439e-03	-1.927602e-03	-1.680637e-03	-1.551920e-03	-1.420273e-03	-1.146096e-03	-1.004650e-03	-8.604730e-04	-4.198049e-04	4.160052e-04	5.293927e-04	-2.718945e-04	-1.258619e-04	1.682571e-05	1.204373e-03	1.287165e-03	1.376592e-03	1.477131e-03	1.585439e-03	4.522746e-03	4.850266e-03	1.553030e-03	1.530441e-03	1.505569e-03	1.056398e-03	1.102028e-03	5.161423e-03	5.421642e-03	2.597465e-03	2.797298e-03	3.024769e-03	8.636324e-04	1.285398e-03	1.213125e-03	1.068369e-03	-3.563315e-03	-3.424217e-03	-3.296708e-03	1.397082e-03	1.444059e-03	1.490222e-03	6.608367e-04	6.855887e-04	-2.512056e-03	-2.349348e-04	-6.301437e-03	-4.619086e-03	1.049974e-03	-1.901680e-03	5.675605e-03	1.408567e-03	1.455270e-03	-1.356177e-03	-5.535441e-03	9.045497e-04	-2.630995e-03	4.176234e-03	-2.445109e-03	-3.775034e-03	-5.863958e-03	-1.149714e-03	-3.679941e-04	-6.848186e-04	-5.788286e-03	2.869543e-03	1.414783e-03	2.323265e-04	-1.733002e-03	7.363307e-04	-3.391498e-04	8.158817e-04	5.868590e-04	-4.891986e-03	4.975924e-04	-3.611813e-03	-3.464387e-03	-1.609469e-03	2.186317e-03	1.358348e-03	2.800834e-03	3.684568e-03	1.327193e-03	-8.172180e-03	-5.197335e-03	3.727602e-03	1.979123e-03	-1.924911e-03	1.435329e-03	-2.571907e-03	1.430152e-03	1.459637e-03	-2.113085e-03	3.084221e-03	-2.291035e-03	-2.091669e-03	8.226058e-04	1.323350e-03	-1.552293e-03	3.147789e-03	-5.074242e-04	-2.621105e-03	1.404812e-03	1.286445e-03	1.310321e-03	1.386962e-03	1.395487e-03	-4.370925e-03	1.576406e-03	1.332475e-04	-2.653311e-03	-2.400824e-03	-1.537858e-03	1.847235e-03	2.544607e-03	3.614169e-04	1.344154e-03	1.329760e-03	1.323817e-03	1.329753e-03	-5.775063e-04	-4.535101e-04	1.336901e-03	1.354068e-03	1.381431e-03	1.644839e-03	1.736293e-03	1.447942e-03	1.416395e-03	3.354761e-03	8.506384e-04	8.863699e-04	7.577510e-04	7.884071e-04	1.508282e-03	1.568693e-03	1.056280e-04	1.674550e-04	1.081330e-03	2.137257e-03	2.326046e-03	1.452313e-03	1.439535e-03	-1.375492e-04	-5.124789e-05	3.409221e-05	1.139649e-03	1.170863e-03	-1.182431e-03	-1.015136e-03	-8.553443e-04	-7.105989e-04	6.474364e-04	6.692394e-04	6.889251e-04	7.124525e-04	2.822417e-04	3.342063e-04	3.755655e-04	4.172101e-04	4.504158e-04	6.285594e-04	6.066157e-04	4.843905e-04	9.706333e-04	-4.150793e-03	-3.953640e-03	1.008752e-03	1.042152e-03	1.085107e-03	1.160115e-03	1.284262e-03	3.908832e-03	4.115606e-03	1.433972e-03	1.506950e-03	2.316375e-03	2.441828e-03	2.576924e-03	2.721207e-03	-2.945809e-03	-2.833101e-03	-2.723254e-03	-2.515172e-03	-2.410327e-03	-2.300970e-03	-2.195209e-03	-1.968392e-03	-1.851595e-03	-1.747298e-03	-1.494213e-03	-1.351367e-03	-1.229253e-03	-1.080940e-03	-9.522336e-04	-7.990508e-04	-6.634659e-04	7.201034e-04	6.024222e-04	-2.130062e-04	-7.220354e-05	8.094275e-05	2.231518e-04	1.587224e-03	1.664933e-03	1.752682e-03	1.846539e-03	1.949795e-03	2.065179e-03	4.301223e-03	4.467120e-03	1.389884e-03	1.368046e-03	1.356414e-03	9.164517e-04	9.666173e-04	9.961186e-04	4.605830e-03	4.677369e-03	4.597740e-03	2.878962e-03	3.053698e-03	3.253757e-03	3.466792e-03	1.461870e-03	1.598795e-03	1.602246e-03	1.518700e-03	-3.066474e-03	-3.323379e-03	-3.197304e-03	1.230552e-03	1.258271e-03	1.315701e-03	1.335962e-03	5.122335e-04	5.405804e-04	5.628475e-04	-1.930886e-03	-5.655348e-03	1.716019e-03	-8.866755e-03	-2.085968e-03	1.297382e-03	-2.895452e-04	-2.221407e-03	-4.188625e-03	-2.410562e-03	-1.436746e-03	1.394518e-04	2.556648e-03	2.500034e-03	-5.599011e-04	-1.861193e-03	-2.129167e-03	-2.212889e-03	-2.126068e-03	-2.489245e-03	3.076675e-03	1.714099e-03	1.827772e-03	2.443071e-03	1.362510e-03	1.281053e-03	6.488284e-04	-5.099501e-03	-2.878917e-03	-3.221613e-03	6.792405e-04	8.771063e-04	-2.755417e-04	-1.376627e-03	1.012892e-03	9.332525e-04	1.786858e-03	-4.867537e-03	-3.844515e-04	-9.244418e-03	-4.397019e-03	-2.262051e-03	6.081255e-03	6.731730e-03	1.329195e-03	-1.284999e-03	-2.482114e-03	3.339725e-03	-2.322631e-03	-3.498001e-03	-1.094795e-03	-3.239368e-03	-1.776104e-04	-1.772328e-03	5.225431e-04	4.897864e-04	-4.615437e-03	5.058689e-04	-3.357999e-03	2.253844e-03	1.269045e-03	-1.509058e-03	1.597658e-03	1.582686e-03	1.569898e-03	1.226604e-03	1.355600e-03	2.430962e-04	-2.407042e-03	-1.603617e-03	1.226564e-03	1.232841e-03	1.221496e-03	1.232941e-03	-4.893586e-04	-5.999419e-04	1.227895e-03	1.247522e-03	1.259113e-03	1.280198e-03	1.537042e-03	1.619855e-03	1.293584e-03	2.604617e-03	7.426203e-04	7.672088e-04	6.832567e-04	7.014529e-04	1.409258e-03	1.467049e-03	2.172052e-05	9.353510e-05	1.956104e-03	2.099407e-03	1.290743e-03	-2.009135e-04	-1.094735e-04	-4.220665e-05	1.011926e-03	-1.133987e-03	-9.843118e-04	-8.458382e-04	-7.188820e-04	5.339990e-04	5.654991e-04	5.773101e-04	6.104356e-04	6.273056e-04	2.020802e-04	2.368481e-04	2.908319e-04	3.170807e-04	3.632734e-04	-3.995061e-03	-3.815984e-03	-3.651675e-03	1.068704e-03	1.107813e-03	1.144209e-03	1.189557e-03	1.254013e-03	3.902639e-03	4.004049e-03	1.641221e-03	1.707361e-03	2.655708e-03	2.787564e-03	2.936935e-03	-2.753170e-03	-2.659255e-03	-2.548452e-03	-2.460411e-03	-2.344817e-03	-2.249252e-03	-2.131734e-03	-1.976509e-03	-1.793848e-03	-1.622987e-03	-1.113481e-03	-8.426840e-04	-5.621479e-04	1.265179e-05	2.910645e-04	1.805908e-03	1.882451e-03	1.989135e-03	2.069950e-03	2.176885e-03	2.298458e-03	2.417121e-03	4.063010e-03	4.096130e-03	1.251727e-03	1.252984e-03	1.239572e-03	7.986293e-04	8.585802e-04	4.097098e-03	4.021176e-03	3.803454e-03	3.085743e-03	3.242844e-03	3.418237e-03	3.593850e-03	3.754673e-03	1.376581e-03	1.583273e-03	1.714901e-03	1.816690e-03	-3.097770e-03	-2.984409e-03	1.091151e-03	1.164921e-03	3.846603e-04	4.257615e-04	4.413981e-04	4.767868e-04	6.894177e-03	-9.312465e-03	-2.007769e-03	-2.094495e-03	2.055076e-03	1.626332e-03	-4.315134e-03	-1.434471e-03	-3.360516e-03	2.973083e-03	1.808226e-03	-2.388577e-03	-1.338716e-03	-1.886575e-03	1.904286e-03	-5.411733e-03	1.109937e-03	-1.010762e-03	-1.756654e-03	1.545077e-03	7.807687e-04	-4.126381e-03	4.282095e-04	1.261644e-03	1.215478e-03	9.867418e-04	-3.292091e-04	9.768293e-05	-2.259784e-03	5.934407e-04	-5.110870e-04	-4.177921e-04	2.832445e-03	-3.797904e-03	-2.743374e-03	-1.778721e-03	1.973570e-03	1.470823e-03	-8.737987e-03	-3.955577e-03	-2.182094e-03	-2.379766e-03	1.920661e-03	1.144813e-03	9.795476e-04	1.095796e-03	-4.528230e-03	-1.780570e-03	-5.617219e-03	-2.332055e-03	6.139598e-03	-1.210260e-03	-2.151925e-03	-2.092466e-03	6.293646e-04	-1.474812e-03	-3.234801e-03	-3.117070e-03	8.118477e-04	1.838178e-03	1.766379e-03	1.127075e-03	2.539141e-04	-4.600587e-04	-1.621766e-03	1.130408e-03	1.136339e-03	-6.140088e-04	1.154311e-03	1.168814e-03	1.405056e-03	2.055871e-03	6.488607e-04	1.299594e-03	1.348388e-03	-6.982607e-06	1.712050e-03	1.144959e-03	1.144983e-03	-2.018142e-04	-1.054371e-04	8.486423e-04	-1.077118e-03	-9.428574e-04	-8.259500e-04	-7.192216e-04	4.734583e-04	5.210832e-04	5.498744e-04	1.854345e-04	2.605492e-04	-3.643779e-03	-3.497975e-03	1.177340e-03	1.277196e-03	3.811722e-03	1.851093e-03	3.027666e-03	-1.587790e-03	-2.540589e-03	-2.338256e-03	-2.130733e-03	-1.931758e-03	-1.757237e-03	-1.381151e-03	-1.133884e-03	-8.756273e-04	-6.118445e-04	-3.403352e-04	-6.501816e-05	2.051039e-04	4.420056e-04	2.036318e-03	2.232810e-03	2.415442e-03	2.526672e-03	2.664036e-03	3.766359e-03	3.701877e-03	1.137414e-03	1.140741e-03	1.126529e-03	6.849713e-04	7.215116e-04	3.609018e-03	3.437682e-03	3.133553e-03	2.663797e-03	3.183956e-03	3.331751e-03	3.481554e-03	3.621779e-03	3.723182e-03	3.830742e-03	1.486741e-03	1.742393e-03	-3.021623e-03	-2.893074e-03	9.192047e-04	1.046609e-03	1.093955e-03	3.253169e-04	3.797244e-04	-4.630261e-03	5.400606e-03	5.366390e-03	-6.041960e-03	-8.505062e-04	-4.102897e-03	-3.639736e-03	2.528590e-03	-1.883804e-03	-1.592593e-03	3.377314e-03	2.091951e-03	2.039406e-04	-1.686491e-03	-2.329152e-03	-3.314767e-03	1.023365e-03	1.751459e-03	-5.155840e-03	1.056580e-03	-1.352134e-03	3.577246e-03	8.751182e-04	-1.805546e-03	4.885605e-04	1.147686e-03	9.124894e-04	7.304111e-04	1.336044e-03	1.387676e-03	-1.242196e-03	-1.130668e-03	-6.931812e-03	-3.718666e-03	-3.872374e-03	-3.088956e-03	1.951353e-03	5.189059e-04	9.953796e-04	-6.142731e-04	-7.954584e-03	-8.034019e-03	-2.218410e-03	1.286867e-03	-3.198182e-03	1.749421e-04	1.450355e-03	-1.342361e-03	-1.699137e-03	6.708351e-04	-2.197009e-03	-5.296970e-04	-4.450923e-04	-3.576535e-03	-2.029834e-03	1.244902e-03	1.514981e-03	1.015525e-03	-2.331037e-03	3.873670e-03	-7.099772e-04	-1.993814e-03	-1.914944e-03	8.716728e-04	-1.475669e-03	-2.987616e-03	6.991177e-04	1.949392e-03	3.124542e-04	-4.028196e-04	-9.188110e-04	1.018781e-03	1.035041e-03	1.083217e-03	1.120556e-03	1.652347e-03	5.367107e-04	1.175251e-03	1.207104e-03	4.523933e-04	1.016870e-03	1.016130e-03	1.025598e-03	-3.484914e-04	-2.408297e-04	-1.543012e-04	-1.007530e-03	3.586763e-04	4.083138e-04	-5.819216e-05	3.643417e-05	9.601508e-04	-3.442473e-03	1.021238e-03	1.125999e-03	3.020731e-03	-2.494999e-03	-2.292826e-03	-1.557405e-03	-2.087315e-03	-1.893382e-03	-1.719244e-03	-1.382793e-03	-1.173496e-03	-9.384723e-04	-6.937877e-04	-4.429739e-04	-1.851407e-04	7.262461e-05	1.931252e-03	2.036446e-03	2.234755e-03	2.439700e-03	2.629067e-03	2.838173e-03	3.413975e-03	3.278744e-03	1.022660e-03	1.012975e-03	5.859132e-04	6.238321e-04	3.129716e-03	2.911971e-03	2.572709e-03	2.114898e-03	1.541921e-03	3.179225