# vtk DataFile Version 3.0
vtk output
ASCII
DATASET UNSTRUCTURED_GRID
POINTS 5233 float
9.997500e-01	-3.632909e-05	0.0	9.990000e-01	-1.452618e-04	0.0	9.977600e-01	-3.252008e-04	0.0	9.960200e-01	-5.774943e-04	0.0	9.937800e-01	-9.022942e-04	0.0	9.910500e-01	-1.298763e-03	0.0	9.878400e-01	-1.766726e-03	0.0	9.841300e-01	-2.311194e-03	0.0	9.799500e-01	-2.930640e-03	0.0	9.752800e-01	-3.631444e-03	0.0	9.701500e-01	-4.412625e-03	0.0	9.645400e-01	-5.280292e-03	0.0	9.584700e-01	-6.233365e-03	0.0	9.519400e-01	-7.272227e-03	0.0	9.449600e-01	-8.393908e-03	0.0	9.375400e-01	-9.593773e-03	0.0	9.296900e-01	-1.086609e-02	0.0	9.214000e-01	-1.220804e-02	0.0	9.127000e-01	-1.361074e-02	0.0	9.035800e-01	-1.507272e-02	0.0	8.940600e-01	-1.658877e-02	0.0	8.841500e-01	-1.815610e-02	0.0	8.738500e-01	-1.977361e-02	0.0	8.631800e-01	-2.143627e-02	0.0	8.521600e-01	-2.313752e-02	0.0	8.407700e-01	-2.487471e-02	0.0	8.290500e-01	-2.663345e-02	0.0	8.170100e-01	-2.840162e-02	0.0	8.046400e-01	-3.016792e-02	0.0	7.919700e-01	-3.191393e-02	0.0	7.790100e-01	-3.362378e-02	0.0	7.657800e-01	-3.528073e-02	0.0	7.522800e-01	-3.687177e-02	0.0	7.385200e-01	-3.838440e-02	0.0	7.245300e-01	-3.980643e-02	0.0	7.103200e-01	-4.113073e-02	0.0	6.958900e-01	-4.235375e-02	0.0	6.812700e-01	-4.347212e-02	0.0	6.664700e-01	-4.448693e-02	0.0	6.515000e-01	-4.540154e-02	0.0	6.363800e-01	-4.622067e-02	0.0	6.211300e-01	-4.695082e-02	0.0	6.057600e-01	-4.760016e-02	0.0	5.902800e-01	-4.817747e-02	0.0	5.747100e-01	-4.869148e-02	0.0	5.590600e-01	-4.915119e-02	0.0	5.433600e-01	-4.956464e-02	0.0	5.276100e-01	-4.993996e-02	0.0	5.118400e-01	-5.028359e-02	0.0	4.960500e-01	-5.060149e-02	0.0	4.802700e-01	-5.089775e-02	0.0	4.645100e-01	-5.117554e-02	0.0	4.487800e-01	-5.143670e-02	0.0	4.331100e-01	-5.168146e-02	0.0	4.175000e-01	-5.190932e-02	0.0	4.019700e-01	-5.211839e-02	0.0	3.865400e-01	-5.230586e-02	0.0	3.712300e-01	-5.246816e-02	0.0	3.560400e-01	-5.260130e-02	0.0	3.409900e-01	-5.270061e-02	0.0	3.261100e-01	-5.276113e-02	0.0	3.114000e-01	-5.277790e-02	0.0	2.968700e-01	-5.274582e-02	0.0	2.825500e-01	-5.265996e-02	0.0	2.684500e-01	-5.251559e-02	0.0	2.545700e-01	-5.230801e-02	0.0	2.409400e-01	-5.203324e-02	0.0	2.275700e-01	-5.168749e-02	0.0	2.144700e-01	-5.126729e-02	0.0	2.016600e-01	-5.076993e-02	0.0	1.891400e-01	-5.019238e-02	0.0	1.769300e-01	-4.953284e-02	0.0	1.650400e-01	-4.878952e-02	0.0	1.534900e-01	-4.796177e-02	0.0	1.422900e-01	-4.704883e-02	0.0	1.314400e-01	-4.604934e-02	0.0	1.209500e-01	-4.496296e-02	0.0	1.108500e-01	-4.379208e-02	0.0	1.011300e-01	-4.253503e-02	0.0	9.181000e-02	-4.119389e-02	0.0	8.290000e-02	-3.976997e-02	0.0	7.440000e-02	-3.826304e-02	0.0	6.633000e-02	-3.667657e-02	0.0	5.869000e-02	-3.501058e-02	0.0	5.149000e-02	-3.326708e-02	0.0	4.474000e-02	-3.144844e-02	0.0	3.844000e-02	-2.955433e-02	0.0	3.260000e-02	-2.758711e-02	0.0	2.723000e-02	-2.554977e-02	0.0	2.232000e-02	-2.343708e-02	0.0	1.790000e-02	-2.126113e-02	0.0	1.395000e-02	-1.901092e-02	0.0	1.049000e-02	-1.669561e-02	0.0	7.520000e-03	-1.431461e-02	0.0	5.040000e-03	-1.186637e-02	0.0	3.050000e-03	-9.347302e-03	0.0	1.560000e-03	-6.769269e-03	0.0	5.600000e-04	-4.108233e-03	0.0	6.000000e-05	-1.363608e-03	0.0	0.000000e+00	0.000000e+00	0.0	6.000000e-05	1.350236e-03	0.0	5.600000e-04	4.050826e-03	0.0	1.560000e-03	6.663226e-03	0.0	3.050000e-03	9.195473e-03	0.0	5.040000e-03	1.167583e-02	0.0	7.520000e-03	1.409653e-02	0.0	1.049000e-02	1.646478e-02	0.0	1.395000e-02	1.878581e-02	0.0	1.790000e-02	2.106403e-02	0.0	2.232000e-02	2.329392e-02	0.0	2.723000e-02	2.549065e-02	0.0	3.260000e-02	2.764558e-02	0.0	3.844000e-02	2.976800e-02	0.0	4.474000e-02	3.185849e-02	0.0	5.149000e-02	3.391797e-02	0.0	5.869000e-02	3.595015e-02	0.0	6.633000e-02	3.795531e-02	0.0	7.440000e-02	3.993367e-02	0.0	8.290000e-02	4.188739e-02	0.0	9.181000e-02	4.381361e-02	0.0	1.011300e-01	4.571359e-02	0.0	1.108500e-01	4.758588e-02	0.0	1.209500e-01	4.942683e-02	0.0	1.314400e-01	5.123782e-02	0.0	1.422900e-01	5.301272e-02	0.0	1.534900e-01	5.474871e-02	0.0	1.650400e-01	5.644398e-02	0.0	1.769300e-01	5.809472e-02	0.0	1.891400e-01	5.969553e-02	0.0	2.016600e-01	6.124223e-02	0.0	2.144700e-01	6.272926e-02	0.0	2.275700e-01	6.415328e-02	0.0	2.409400e-01	6.550849e-02	0.0	2.545700e-01	6.679020e-02	0.0	2.684500e-01	6.799357e-02	0.0	2.825500e-01	6.911218e-02	0.0	2.968700e-01	7.014214e-02	0.0	3.114000e-01	7.107860e-02	0.0	3.261100e-01	7.191555e-02	0.0	3.409900e-01	7.264840e-02	0.0	3.560400e-01	7.327286e-02	0.0	3.712300e-01	7.378330e-02	0.0	3.865400e-01	7.417483e-02	0.0	4.019700e-01	7.444303e-02	0.0	4.175000e-01	7.458295e-02	0.0	4.331100e-01	7.458992e-02	0.0	4.487800e-01	7.445955e-02	0.0	4.645100e-01	7.418745e-02	0.0	4.802700e-01	7.376991e-02	0.0	4.960500e-01	7.320341e-02	0.0	5.118400e-01	7.248482e-02	0.0	5.276100e-01	7.161270e-02	0.0	5.433600e-01	7.058503e-02	0.0	5.590600e-01	6.940265e-02	0.0	5.747100e-01	6.806549e-02	0.0	5.902800e-01	6.657731e-02	0.0	6.057600e-01	6.494175e-02	0.0	6.211300e-01	6.316504e-02	0.0	6.363800e-01	6.125402e-02	0.0	6.515000e-01	5.921698e-02	0.0	6.664700e-01	5.706516e-02	0.0	6.812700e-01	5.481151e-02	0.0	6.958900e-01	5.246892e-02	0.0	7.103200e-01	5.005129e-02	0.0	7.245300e-01	4.757686e-02	0.0	7.385200e-01	4.505941e-02	0.0	7.522800e-01	4.251466e-02	0.0	7.657800e-01	3.996213e-02	0.0	7.790100e-01	3.741749e-02	0.0	7.919700e-01	3.489399e-02	0.0	8.046400e-01	3.240819e-02	0.0	8.170100e-01	2.997405e-02	0.0	8.290500e-01	2.760884e-02	0.0	8.407700e-01	2.532127e-02	0.0	8.521600e-01	2.312328e-02	0.0	8.631800e-01	2.103157e-02	0.0	8.738500e-01	1.905016e-02	0.0	8.841500e-01	1.718895e-02	0.0	8.940600e-01	1.545535e-02	0.0	9.035800e-01	1.385019e-02	0.0	9.127000e-01	1.237271e-02	0.0	9.214000e-01	1.102010e-02	0.0	9.296900e-01	9.781662e-03	0.0	9.375400e-01	8.650401e-03	0.0	9.449600e-01	7.612208e-03	0.0	9.519400e-01	6.656126e-03	0.0	9.584700e-01	5.772587e-03	0.0	9.645400e-01	4.954359e-03	0.0	9.701500e-01	4.195689e-03	0.0	9.752800e-01	3.496291e-03	0.0	9.799500e-01	2.852720e-03	0.0	9.841300e-01	2.270023e-03	0.0	9.878400e-01	1.747228e-03	0.0	9.910500e-01	1.290667e-03	0.0	9.937800e-01	8.994899e-04	0.0	9.960200e-01	5.767420e-04	0.0	9.977600e-01	3.250644e-04	0.0	9.990000e-01	1.452495e-04	0.0	9.997500e-01	3.632890e-05	0.0	1.000000e+00	0.000000e+00	0.0	1.984229e+01	2.506660e+00	0.0	1.937166e+01	4.973800e+00	0.0	1.859553e+01	7.362490e+00	0.0	1.752613e+01	9.635070e+00	0.0	1.618034e+01	1.175571e+01	0.0	1.457937e+01	1.369094e+01	0.0	1.274848e+01	1.541027e+01	0.0	1.071654e+01	1.688656e+01	0.0	8.515590e+00	1.809654e+01	0.0	6.180340e+00	1.902113e+01	0.0	3.747630e+00	1.964575e+01	0.0	1.255810e+00	1.996053e+01	0.0	-1.255810e+00	1.996053e+01	0.0	-3.747630e+00	1.964574e+01	0.0	-6.180340e+00	1.902113e+01	0.0	-8.515590e+00	1.809654e+01	0.0	-1.071654e+01	1.688656e+01	0.0	-1.274848e+01	1.541026e+01	0.0	-1.457937e+01	1.369094e+01	0.0	-1.618034e+01	1.175570e+01	0.0	-1.752613e+01	9.635070e+00	0.0	-1.859553e+01	7.362490e+00	0.0	-1.937166e+01	4.973800e+00	0.0	-1.984229e+01	2.506660e+00	0.0	-2.000000e+01	0.000000e+00	0.0	-1.984229e+01	-2.506670e+00	0.0	-1.937166e+01	-4.973800e+00	0.0	-1.859553e+01	-7.362490e+00	0.0	-1.752613e+01	-9.635080e+00	0.0	-1.618034e+01	-1.175571e+01	0.0	-1.457937e+01	-1.369094e+01	0.0	-1.274848e+01	-1.541027e+01	0.0	-1.071653e+01	-1.688656e+01	0.0	-8.515580e+00	-1.809654e+01	0.0	-6.180340e+00	-1.902113e+01	0.0	-3.747620e+00	-1.964575e+01	0.0	-1.255810e+00	-1.996053e+01	0.0	1.255810e+00	-1.996053e+01	0.0	3.747630e+00	-1.964574e+01	0.0	6.180340e+00	-1.902113e+01	0.0	8.515590e+00	-1.809654e+01	0.0	1.071654e+01	-1.688656e+01	0.0	1.274848e+01	-1.541026e+01	0.0	1.457937e+01	-1.369094e+01	0.0	1.618034e+01	-1.175570e+01	0.0	1.752614e+01	-9.635070e+00	0.0	1.859553e+01	-7.362490e+00	0.0	1.937166e+01	-4.973790e+00	0.0	1.984229e+01	-2.506660e+00	0.0	2.000000e+01	0.000000e+00	0.0	6.093892e-02	-4.285144e-02	0.0	6.600410e-01	-5.844939e-02	0.0	4.255297e-01	8.863687e-02	0.0	6.904536e-01	6.677179e-02	0.0	3.791252e-01	-6.656260e-02	0.0	9.994589e-01	-7.258723e-04	0.0	9.985402e-01	-1.320872e-03	0.0	7.738251e-01	-4.634860e-02	0.0	6.897588e-01	-5.606349e-02	0.0	-1.367138e-03	6.233161e-03	0.0	7.467650e-01	-4.997311e-02	0.0	5.838090e-01	8.122916e-02	0.0	9.927651e-01	-3.598793e-03	0.0	9.898616e-01	-4.480982e-03	0.0	5.994275e-01	7.958836e-02	0.0	7.187102e-01	-5.322760e-02	0.0	-1.548094e-03	7.305687e-04	0.0	9.864673e-01	-5.441292e-03	0.0	9.825916e-01	-6.470515e-03	0.0	-1.358171e-03	-6.336027e-03	0.0	6.449375e-01	-5.947833e-02	0.0	8.244939e-01	-3.842106e-02	0.0	7.997632e-01	-4.246746e-02	0.0	3.482204e-01	8.660152e-02	0.0	8.478910e-01	-3.434813e-02	0.0	2.468390e-01	7.862192e-02	0.0	8.698983e-01	-3.032503e-02	0.0	1.001408e-02	2.079824e-02	0.0	8.904116e-01	-2.642047e-02	0.0	7.722818e-02	-4.682321e-02	0.0	9.093595e-01	-2.267674e-02	0.0	-1.865007e-03	-3.138557e-03	0.0	9.422484e-01	-1.580904e-02	0.0	9.266631e-01	-1.912583e-02	0.0	1.806769e-02	-2.637803e-02	0.0	4.256782e-01	-6.623083e-02	0.0	8.590773e-01	-3.232303e-02	0.0	9.560748e-01	-1.276843e-02	0.0	9.782290e-01	-7.589010e-03	0.0	9.680882e-01	-1.002215e-02	0.0	1.584746e-01	-5.900398e-02	0.0	9.000881e-01	-2.452666e-02	0.0	7.604299e-01	-4.820093e-02	0.0	9.971132e-01	-2.058079e-03	0.0	5.988429e-01	-6.197001e-02	0.0	4.413590e-01	-6.604490e-02	0.0	5.361230e-01	-6.418097e-02	0.0	4.728882e-01	-6.557080e-02	0.0	5.045102e-01	-6.495629e-02	0.0	4.886866e-01	-6.528085e-02	0.0	1.251652e-01	-5.514410e-02	0.0	2.799454e-02	-3.148915e-02	0.0	3.945492e-01	-6.649285e-02	0.0	4.640172e-02	-3.855324e-02	0.0	4.100682e-01	-6.638196e-02	0.0	3.187978e-01	-6.636792e-02	0.0	3.486567e-01	-6.657206e-02	0.0	3.367005e-02	-3.391128e-02	0.0	2.896281e-01	-6.592628e-02	0.0	9.346743e-01	-1.743395e-02	0.0	1.470184e-01	-5.780948e-02	0.0	1.948400e-01	-6.200962e-02	0.0	8.600599e-02	-4.867547e-02	0.0	1.048018e-01	-5.210645e-02	0.0	5.676108e-01	-6.321237e-02	0.0	1.702734e-01	-6.010386e-02	0.0	6.143295e-01	-6.122907e-02	0.0	8.803501e-01	-2.835590e-02	0.0	2.280418e-02	-2.897635e-02	0.0	9.951875e-01	-2.803889e-03	0.0	6.796488e-03	-1.820110e-02	0.0	1.798544e-02	2.626178e-02	0.0	9.182203e-01	-2.087471e-02	0.0	9.49388
[...]
POINT_DATA 5233

SCALARS Conservative_1 float 1
LOOKUP_TABLE default
1.589955e-02	7.313418e-03	5.782607e-03	4.662065e-03	3.948696e-03	3.412943e-03	2.994838e-03	2.662721e-03	2.398156e-03	2.186787e-03	2.018909e-03	1.887029e-03	1.785139e-03	1.708351e-03	1.652541e-03	1.612860e-03	1.587653e-03	1.568808e-03	1.556409e-03	1.550783e-03	1.557122e-03	1.570244e-03	1.592598e-03	1.626301e-03	1.668107e-03	1.721320e-03	1.779735e-03	1.846066e-03	1.913496e-03	1.981150e-03	2.046393e-03	2.101520e-03	2.149915e-03	2.180240e-03	2.199604e-03	2.199417e-03	2.187319e-03	2.157152e-03	2.117124e-03	2.062221e-03	2.002052e-03	1.932118e-03	1.861303e-03	1.785755e-03	1.712978e-03	1.639544e-03	1.571200e-03	1.505363e-03	1.445429e-03	1.390127e-03	1.340748e-03	1.296345e-03	1.256870e-03	1.223328e-03	1.193161e-03	1.168614e-03	1.146258e-03	1.128042e-03	1.110683e-03	1.096090e-03	1.081039e-03	1.067140e-03	1.051292e-03	1.035480e-03	1.016294e-03	9.957966e-04	9.706523e-04	9.426963e-04	9.093141e-04	8.715335e-04	8.278505e-04	7.778857e-04	7.216220e-04	6.576091e-04	5.863067e-04	5.065746e-04	4.174820e-04	3.193472e-04	2.105246e-04	9.099314e-05	-4.092452e-05	-1.855519e-04	-3.443250e-04	-5.182001e-04	-7.091145e-04	-9.176742e-04	-1.146587e-03	-1.396194e-03	-1.668315e-03	-1.962289e-03	-2.276182e-03	-2.596414e-03	-2.923558e-03	-3.252753e-03	-3.388557e-03	-3.161665e-03	-2.886662e-03	-2.667139e-03	-2.256886e-03	-1.853811e-03	-1.504572e-03	-6.175734e-04	4.414267e-04	5.674163e-04	1.620467e-03	5.442036e-03	9.326772e-03	1.040306e-02	9.435728e-03	8.184204e-03	7.186118e-03	6.319066e-03	5.516693e-03	4.797620e-03	4.167202e-03	3.629224e-03	3.167463e-03	2.768607e-03	2.427656e-03	2.127363e-03	1.865809e-03	1.629380e-03	1.409598e-03	1.205775e-03	1.020349e-03	8.534680e-04	7.039396e-04	5.651905e-04	4.380129e-04	3.185297e-04	2.112110e-04	1.145917e-04	2.886091e-05	-4.718540e-05	-1.188229e-04	-1.854509e-04	-2.465151e-04	-2.835142e-04	-2.868620e-04	-2.405160e-04	-1.363500e-04	7.092325e-05	3.708338e-04	6.608262e-04	7.976652e-04	7.836131e-04	7.014909e-04	6.110536e-04	5.228099e-04	4.261575e-04	3.212546e-04	2.042703e-04	8.533716e-05	-3.927236e-05	-1.699031e-04	-3.010953e-04	-4.405385e-04	-5.773105e-04	-7.154179e-04	-8.541851e-04	-9.888474e-04	-1.125363e-03	-1.255314e-03	-1.386642e-03	-1.510079e-03	-1.634268e-03	-1.750209e-03	-1.866375e-03	-1.974281e-03	-2.082541e-03	-2.183185e-03	-2.285006e-03	-2.378944e-03	-2.474654e-03	-2.567002e-03	-2.657508e-03	-2.747964e-03	-2.837508e-03	-2.932957e-03	-3.031134e-03	-3.141109e-03	-3.253350e-03	-3.368406e-03	-3.486391e-03	-3.618600e-03	-3.764577e-03	-3.930197e-03	-4.115800e-03	-4.326566e-03	-4.565890e-03	-4.840431e-03	-5.156971e-03	-5.525985e-03	-5.959495e-03	-6.476244e-03	-7.100704e-03	-8.018119e-03	-8.854988e-03	-1.555602e-02	-3.894605e-04	-1.035323e-05	-1.011566e-05	-9.734837e-06	-9.331322e-06	-8.777971e-06	-8.108685e-06	-7.241122e-06	-6.160525e-06	-4.805218e-06	-3.327879e-06	-1.399506e-06	9.760347e-07	3.702525e-06	6.380682e-06	8.304409e-06	9.778636e-06	1.052239e-05	1.064092e-05	1.033057e-05	9.953538e-06	9.736131e-06	8.234835e-06	9.489794e-06	1.748840e-05	1.169662e-05	1.016904e-05	1.246289e-05	1.065734e-05	1.417053e-06	1.421127e-06	1.288106e-06	6.349937e-07	2.375220e-07	-3.805572e-07	-1.166517e-06	-2.087727e-06	-2.742621e-06	-3.814836e-06	-4.419903e-06	-5.640633e-06	-7.107191e-06	-8.172488e-06	-9.041248e-06	-9.675720e-06	-1.013311e-05	-1.044620e-05	-1.062736e-05	-1.066499e-05	-1.057067e-05	-1.053292e-05	-5.568138e-04	1.845173e-03	1.015466e-03	-9.573633e-04	9.930307e-04	1.201236e-02	8.251955e-03	1.856999e-03	1.918864e-03	-5.727342e-04	1.923751e-03	4.920695e-05	3.898885e-03	3.313553e-03	-9.043522e-05	1.946757e-03	-1.769275e-03	2.881616e-03	2.553482e-03	-2.724789e-03	1.795583e-03	1.660114e-03	1.761671e-03	4.628290e-04	1.573036e-03	5.568562e-04	1.515087e-03	8.326423e-03	1.496226e-03	-2.465923e-04	1.516152e-03	-2.460990e-03	1.604890e-03	1.546606e-03	-2.152609e-03	1.061324e-03	1.539252e-03	1.725398e-03	2.298077e-03	1.941028e-03	5.402163e-04	1.502402e-03	1.896398e-03	5.991421e-03	1.612365e-03	1.091233e-03	1.361366e-03	1.163032e-03	1.253609e-03	1.206286e-03	3.168596e-04	-1.611926e-03	1.012662e-03	-9.274283e-04	1.035837e-03	9.280476e-04	9.587307e-04	-1.365556e-03	8.954733e-04	1.570503e-03	4.741133e-04	6.982695e-04	-1.115222e-04	1.235095e-04	1.483193e-03	5.996068e-04	1.677262e-03	1.500036e-03	-1.874666e-03	4.730155e-03	-2.995771e-03	7.835656e-03	1.530995e-03	1.655397e-03	2.097761e-03	-4.140902e-05	1.612841e-03	8.324181e-04	1.421342e-03	1.942267e-03	1.812091e-03	2.251178e-04	7.744180e-04	1.548204e-03	1.888089e-03	-7.343500e-04	-3.216323e-03	-2.436908e-03	9.747496e-04	6.519673e-04	1.675354e-02	8.057508e-04	1.169978e-05	9.118413e-04	8.564427e-04	1.124804e-03	1.939967e-03	-1.387324e-03	-2.930163e-03	4.413150e-04	-2.063943e-03	6.334543e-03	3.986594e-03	5.049928e-03	1.908163e-03	1.026147e-03	-8.363606e-03	5.586872e-04	8.452745e-04	-4.424784e-03	-3.992635e-03	-2.817640e-03	7.622464e-04	9.751920e-04	8.476922e-04	-3.276973e-03	-3.049325e-03	2.856221e-03	-4.692023e-03	-3.814835e-03	-3.518267e-03	2.328919e-03	3.554026e-03	3.918578e-04	4.964047e-04	1.123444e-03	3.414076e-04	9.174260e-04	9.843439e-04	1.391972e-03	1.721415e-03	-3.803501e-04	8.944167e-04	7.042659e-04	-6.713875e-04	1.871746e-04	-1.496307e-03	-1.233609e-03	-1.976267e-03	-1.743862e-03	-2.405012e-03	-2.196633e-03	-2.931077e-03	-2.608716e-03	-3.658526e-03	-3.165507e-03	-4.193922e-03	-2.507549e-03	-2.711763e-03	-2.086608e-03	-2.300963e-03	-1.620926e-03	-1.860758e-03	-1.095836e-03	-1.365612e-03	-5.254390e-04	-8.142306e-04	3.172943e-04	-2.349696e-04	7.932853e-04	6.259586e-04	1.251251e-03	1.004260e-03	4.484121e-03	1.548881e-03	8.663278e-03	5.675388e-03	7.391036e-04	1.590305e-03	1.818738e-03	1.709728e-03	9.429213e-04	1.305697e-03	-9.114481e-05	7.022138e-03	5.462452e-03	2.575492e-03	3.179857e-03	4.402304e-04	2.109511e-03	-5.006492e-03	-5.381554e-03	3.543156e-04	-5.844266e-03	-6.434230e-03	3.681872e-04	6.368251e-04	-3.394112e-03	-1.795164e-02	-1.030905e-02	-1.335923e-02	1.737795e-03	-1.137597e-03	-7.225997e-03	6.652948e-04	-3.178875e-03	-2.715955e-03	-3.947814e-04	3.997056e-04	8.766976e-04	3.267665e-03	-7.816031e-04	-1.381914e-03	7.399518e-04	1.685882e-03	1.423902e-03	-2.755369e-03	3.814593e-04	1.663972e-03	1.630074e-03	3.105266e-03	7.931350e-04	1.432810e-03	1.488727e-03	-1.824755e-04	-2.728120e-03	6.078771e-04	-2.284960e-03	1.713896e-03	3.614806e-04	1.702429e-03	1.590829e-03	9.626062e-04	-3.075628e-04	8.625021e-04	1.399854e-03	1.595775e-03	5.117779e-03	6.662263e-03	-5.202499e-04	-2.224620e-03	2.378113e-03	-6.681867e-04	1.651633e-03	-2.549778e-03	-5.596325e-03	1.071797e-03	8.802953e-04	-3.642599e-03	-2.657772e-03	-6.153948e-03	-3.811173e-03	-4.786786e-03	1.122304e-03	9.762959e-04	1.187927e-03	2.563025e-03	1.629252e-03	5.693772e-04	6.961727e-03	1.907645e-03	4.304799e-03	-4.224790e-03	-6.871253e-03	-2.765387e-03	4.222660e-04	-7.111705e-03	-8.970534e-03	-7.859945e-03	1.964757e-03	-4.756385e-04	-2.972303e-03	-2.245367e-03	-1.959840e-03	-2.035333e-03	4.263737e-03	-5.943292e-04	6.473652e-03	4.327444e-03	1.238066e-03	1.215877e-03	2.707942e-03	1.402351e-03	2.333171e-04	3.623666e-03	-2.536859e-03	9.327772e-04	1.286686e-03	1.456648e-03	9.658729e-04	1.413312e-03	1.397809e-03	-4.448022e-04	1.408868e-03	1.446515e-03	1.558106e-03	-1.555993e-03	1.624843e-03	1.828870e-03	2.404142e-03	2.153669e-04	1.681845e-03	1.660481e-03	5.312087e-03	9.953072e-04	1.031689e-03	1.073014e-03	-1.790729e-03	8.828452e-04	9.073013e-04	8.086869e-04	-1.127735e-03	1.472345e-03	1.508541e-03	2.921809e-04	-6.806026e-05	1.270766e-03	1.436627e-03	1.976412e-03	2.163717e-03	1.704131e-03	1.700117e-03	3.547324e-05	1.306453e-04	1.324553e-03	1.382494e-03	-9.359984e-04	-7.577780e-04	-2.527616e-03	8.259410e-04	8.429305e-04	4.777185e-04	5.263360e-04	6.407950e-04	6.708075e-04	7.591926e-04	7.759212e-04	6.964163e-04	-1.761687e-03	-3.068215e-03	4.736264e-03	-5.148711e-03	7.703438e-04	9.828786e-04	1.067868e-03	1.137464e-03	-4.481498e-03	-4.004078e-03	-3.116146e-03	1.184571e-03	1.213679e-03	1.336448e-03	-2.995934e-03	-3.491552e-03	3.569608e-03	3.915230e-03	1.061497e-03	1.010287e-03	1.773534e-03	2.052433e-03	2.208426e-03	-1.759061e-03	-1.242366e-03	-1.105841e-03	-1.638145e-03	-2.113545e-03	-2.878577e-03	-2.443419e-03	-2.334010e-03	-1.996630e-03	-1.881965e-03	-1.508897e-03	-1.379841e-03	-9.615486e-04	-8.182464e-04	-3.669394e-04	-2.164020e-04	5.178887e-04	6.486087e-04	-6.354994e-05	8.719818e-05	1.261677e-03	1.346618e-03	1.438669e-03	1.541416e-03	7.114056e-03	5.204563e-03	5.691401e-03	1.560356e-03	1.522248e-03	1.117212e-03	1.166064e-03	-1.154127e-04	6.177716e-03	2.770231e-03	3.002995e-03	9.353256e-04	9.396985e-04	1.323874e-03	1.213708e-03	-3.358060e-03	-3.232863e-03	1.492853e-03	1.542193e-03	-1.334193e-03	-2.940259e-03	7.201880e-04	-2.554370e-03	7.461276e-04	6.122201e-04	1.427541e-03	1.040624e-03	1.317209e-03	-5.476611e-03	-5.073265e-03	-3.757402e-03	1.987976e-04	-5.911669e-03	-1.113942e-02	-1.038203e-02	4.693970e-03	-1.553060e-03	-1.919610e-03	-1.873930e-03	-2.524723e-04	1.346663e-03	2.987307e-03	6.409449e-04	8.772134e-03	-2.730485e-03	1.482188e-03	-2.876436e-03	1.489985e-03	-2.136687e-03	1.281837e-03	-2.548498e-03	6.696564e-04	1.292511e-03	1.462939e-03	3.373753e-03	-2.351884e-03	-4.435423e-03	1.022126e-03	-3.426477e-03	-2.753269e-04	-6.495374e-03	1.134662e-03	1.439452e-03	1.591951e-03	2.131469e-03	3.652776e-03	-1.117240e-02	-2.727971e-03	-9.954218e-04	5.845534e-03	-1.459019e-03	1.666135e-03	-3.666169e-04	-2.082350e-03	2.497443e-04	8.499293e-04	-1.702383e-03	4.315420e-03	-2.034267e-03	-1.555754e-03	-4.299509e-04	-4.731528e-03	-3.583404e-03	-2.575872e-03	-2.468596e-03	1.495053e-03	1.417626e-03	1.607731e-03	2.812827e-03	1.406251e-03	1.439288e-03	4.442993e-04	5.572645e-03	2.251305e-03	-4.176827e-03	-7.322222e-03	2.097599e-03	-5.983699e-04	-2.870187e-03	-2.350099e-03	-1.494208e-03	7.556524e-03	8.729189e-03	1.789128e-03	2.643240e-03	4.971831e-04	8.205540e-04	1.443895e-03	1.329505e-03	1.307438e-03	1.276745e-03	1.278012e-03	-6.284156e-04	-4.921361e-04	1.282626e-03	1.297327e-03	1.490607e-03	1.567566e-03	2.362237e-03	1.469824e-03	1.455226e-03	3.908819e-03	8.840062e-04	9.173214e-04	7.673610e-04	7.934632e-04	-1.297675e-03	1.383859e-03	1.429871e-03	1.148417e-04	1.854094e-04	1.088127e-03	1.134923e-03	1.941265e-03	2.130993e-03	1.494927e-03	1.489215e-03	-1.475805e-04	-5.140311e-05	3.663118e-05	1.184813e-03	1.232526e-03	-1.112355e-03	-9.381122e-04	-7.757919e-04	6.864383e-04	7.063018e-04	7.242582e-04	3.067667e-04	3.578379e-04	4.046728e-04	4.819165e-04	5.126368e-04	6.330659e-04	6.504721e-04	5.429766e-04	4.522831e-03	1.226692e-03	1.301268e-03	-3.954366e-03	1.352517e-03	1.386016e-03	1.405172e-03	1.522419e-03	-2.912292e-03	3.920636e-03	4.214762e-03	1.482025e-03	1.543926e-03	2.377708e-03	2.510697e-03	2.655515e-03	-1.021542e-03	-2.797231e-03	-2.682184e-03	-2.363852e-03	-2.253639e-03	-2.145572e-03	-1.912967e-03	-1.801802e-03	-1.681950e-03	-1.429592e-03	-1.297615e-03	-1.161849e-03	-8.783676e-04	-7.317550e-04	-5.816771e-04	-1.209249e-04	7.760462e-04	9.030347e-04	3.499503e-05	1.893197e-04	3.415997e-04	1.678671e-03	1.753734e-03	1.833562e-03	1.923566e-03	2.020952e-03	4.839803e-03	5.155373e-03	1.405208e-03	1.379804e-03	1.352063e-03	9.544845e-04	9.983959e-04	5.456358e-03	5.710259e-03	2.989573e-03	3.186161e-03	3.408031e-03	1.435816e-03	1.628389e-03	1.708790e-03	1.683453e-03	-3.286681e-03	-3.155098e-03	-3.033879e-03	1.281438e-03	1.326036e-03	1.369649e-03	5.679529e-04	5.924928e-04	-2.539300e-03	-3.159177e-04	-5.868362e-03	-4.288794e-03	9.530687e-04	-1.850926e-03	4.955794e-03	1.213368e-03	1.250275e-03	-1.424068e-03	-5.149762e-03	1.289998e-03	-2.669041e-03	4.452230e-03	-2.488936e-03	-3.493881e-03	-5.459208e-03	-1.012617e-03	-9.742846e-05	-4.894008e-04	-5.462407e-03	2.398313e-03	1.278287e-03	1.488384e-04	-1.794208e-03	6.499530e-04	-4.194080e-04	7.273730e-04	5.028532e-04	-4.545351e-03	8.211889e-04	-3.339831e-03	-3.200344e-03	-1.379111e-03	2.530778e-03	1.792179e-03	2.407574e-03	3.955767e-03	1.170256e-03	-7.602124e-03	-4.832316e-03	3.221072e-03	1.691062e-03	-1.982327e-03	1.316590e-03	-2.611291e-03	1.310032e-03	1.335627e-03	-2.166225e-03	2.656162e-03	-2.339976e-03	-1.865405e-03	1.192086e-03	1.878538e-03	-1.460545e-03	3.470808e-03	-2.452499e-04	-2.391552e-03	1.956268e-03	1.808143e-03	1.782247e-03	1.273059e-03	1.280294e-03	-4.055339e-03	1.911203e-03	4.099322e-04	-2.693333e-03	-2.411462e-03	-1.602674e-03	1.577507e-03	2.183263e-03	6.707285e-04	1.195449e-03	1.177442e-03	1.162207e-03	1.162757e-03	-6.556047e-04	-5.327831e-04	1.164281e-03	1.174745e-03	1.194296e-03	1.405585e-03	1.482766e-03	1.316903e-03	1.283718e-03	2.892693e-03	7.608853e-04	7.953712e-04	6.709868e-04	7.006220e-04	1.292809e-03	1.342133e-03	2.265054e-05	8.445437e-05	9.836432e-04	1.828029e-03	1.992362e-03	1.326659e-03	1.311923e-03	-2.192060e-04	-1.333046e-04	-4.872471e-05	1.039175e-03	1.069374e-03	-1.252978e-03	-1.088031e-03	-9.303603e-04	-7.873449e-04	5.629069e-04	5.843288e-04	6.037089e-04	6.266502e-04	1.988893e-04	2.506057e-04	2.920522e-04	3.335402e-04	3.668282e-04	5.442127e-04	5.225405e-04	4.006780e-04	1.381022e-03	-3.848071e-03	-3.662345e-03	1.440412e-03	1.486513e-03	1.516590e-03	1.545524e-03	1.594394e-03	4.164470e-03	4.360618e-03	1.844812e-03	1.908541e-03	2.651973e-03	2.772387e-03	2.902628e-03	3.042285e-03	-2.706774e-03	-2.597959e-03	-2.491476e-03	-2.287671e-03	-2.184030e-03	-2.075795e-03	-1.969556e-03	-1.743007e-03	-1.623676e-03	-1.517145e-03	-1.259575e-03	-1.115546e-03	-9.881827e-04	-8.380398e-04	-7.030948e-04	-5.474110e-04	-4.045925e-04	1.069346e-03	9.404825e-04	6.181287e-05	2.124884e-04	3.713638e-04	5.252463e-04	1.985644e-03	2.060838e-03	2.141494e-03	2.226655e-03	2.317474e-03	2.420317e-03	4.541173e-03	4.704981e-03	1.251200e-03	1.226600e-03	1.211351e-03	8.248551e-04	8.727133e-04	9.016271e-04	4.841868e-03	4.912730e-03	4.842086e-03	3.195214e-03	3.363740e-03	3.554655e-03	3.753953e-03	1.678705e-03	1.814138e-03	1.935963e-03	1.990247e-03	-2.822288e-03	-3.066822e-03	-2.946901e-03	1.125976e-03	1.152468e-03	1.206585e-03	1.225542e-03	4.285442e-04	4.567391e-04	4.790289e-04	-1.986573e-03	-5.270575e-03	1.458164e-03	-8.268688e-03	-2.138186e-03	1.183702e-03	-3.652243e-04	-2.269421e-03	-3.892471e-03	-2.454331e-03	-1.501494e-03	6.286517e-05	2.839909e-03	2.751178e-03	-3.798814e-04	-1.806071e-03	-2.104313e-03	-2.197405e-03	-2.101608e-03	-2.528325e-03	2.641442e-03	2.166965e-03	1.553730e-03	2.085675e-03	1.164384e-03	1.153821e-03	5.701063e-04	-4.751376e-03	-2.649618e-03	-2.977218e-03	9.927474e-04	1.217886e-03	-2.650383e-05	-1.158333e-03	1.382599e-03	8.450602e-04	2.163323e-03	-4.532644e-03	-4.596756e-04	-8.601213e-03	-4.089159e-03	-2.252926e-03	5.299666e-03	5.891557e-03	1.138992e-03	-1.351927e-03	-2.507092e-03	3.562295e-03	-2.366833e-03	-3.239573e-03	-9.615416e-04	-3.121368e-03	-3.394800e-04	-1.831342e-03	4.451228e-04	4.131575e-04	-4.295297e-03	7.978417e-04	-3.106742e-03	1.921209e-03	1.160650e-03	-1.415674e-03	2.107013e-03	2.059427e-03	2.003257e-03	1.122910e-03	1.616862e-03	4.749692e-04	-2.419118e-03	-1.665623e-03	1.084241e-03	1.085793e-03	1.070600e-03	1.076332e-03	-5.640070e-04	-6.739373e-04	1.066813e-03	1.079871e-03	1.085960e-03	1.099689e-03	1.306934e-03	1.376580e-03	1.172233e-03	2.225717e-03	6.607292e-04	6.848256e-04	6.031501e-04	6.213405e-04	1.201587e-03	1.248807e-03	-5.461042e-05	1.645143e-05	1.664078e-03	1.787677e-03	1.174159e-03	-2.765813e-04	-1.861802e-04	-1.190213e-04	9.206208e-04	-1.202758e-03	-1.054829e-03	-9.177576e-04	-7.920699e-04	4.570957e-04	4.876780e-04	4.998996e-04	5.318247e-04	5.486925e-04	1.249033e-04	1.603132e-04	2.137134e-04	2.406317e-04	2.862245e-04	-3.709687e-03	-3.540457e-03	-3.385036e-03	1.464320e-03	1.515102e-03	1.561707e-03	1.592184e-03	1.626824e-03	4.085573e-03	4.179450e-03	2.030271e-03	2.066453e-03	2.936975e-03	3.059334e-03	3.200440e-03	-2.529223e-03	-2.437446e-03	-2.330129e-03	-2.242994e-03	-2.130171e-03	-2.034932e-03	-1.918958e-03	-1.763243e-03	-1.581119e-03	-1.407475e-03	-8.899278e-04	-6.124240e-04	-3.234592e-04	2.746015e-04	5.686371e-04	2.148176e-03	2.224791e-03	2.322174e-03	2.404146e-03	2.496712e-03	2.604822e-03	2.712398e-03	4.239280e-03	4.278526e-03	1.120518e-03	1.117398e-03	1.100955e-03	7.155249e-04	7.731172e-04	4.284953e-03	4.213091e-03	4.004492e-03	3.341289e-03	3.488757e-03	3.651063e-03	3.808824e-03	3.951575e-03	1.672765e-03	1.761200e-03	1.873020e-03	2.041615e-03	-2.859516e-03	-2.750682e-03	9.960552e-04	1.065641e-03	3.082261e-04	3.486302e-04	3.648808e-04	3.995731e-04	6.043217e-03	-8.656752e-03	-2.059497e-03	-2.066087e-03	1.685835e-03	1.372020e-03	-4.021984e-03	-1.339822e-03	-3.116739e-03	2.546494e-03	1.525969e-03	-2.397929e-03	-1.403002e-03	-1.941671e-03	2.128185e-03	-5.093308e-03	1.315945e-03	-8.834510e-04	-1.814356e-03	1.303658e-03	7.027333e-04	-3.843483e-03	3.572661e-04	1.071610e-03	1.036210e-03	8.992344e-04	-3.999926e-04	2.633744e-05	-2.304736e-03	5.204987e-04	-5.816095e-04	-4.886628e-04	3.073350e-03	-3.532015e-03	-2.526177e-03	-1.716333e-03	2.172572e-03	1.241546e-03	-8.145790e-03	-3.681640e-03	-2.164036e-03	-2.406014e-03	1.621881e-03	1.039503e-03	1.307374e-03	1.461316e-03	-4.222772e-03	-1.781889e-03	-5.238415e-03	-2.331917e-03	5.352886e-03	-1.275882e-03	-2.200311e-03	-2.140807e-03	9.093277e-04	-1.537184e-03	-2.997011e-03	-2.884407e-03	1.112249e-03	2.228705e-03	2.175562e-03	1.026238e-03	4.455936e-04	-2.988658e-04	-1.681936e-03	9.912267e-04	9.876646e-04	-6.840623e-04	9.949412e-04	1.001170e-03	1.187013e-03	1.738266e-03	5.744413e-04	1.101204e-03	1.140655e-03	-7.841732e-05	1.444405e-03	1.035875e-03	1.030586e-03	-2.733516e-04	-1.767737e-04	7.679947e-04	-1.144045e-03	-1.010684e-03	-8.951239e-04	-7.889527e-04	4.023093e-04	4.492493e-04	4.780072e-04	1.143553e-04	1.896086e-04	-3.385820e-03	-3.247411e-03	1.564857e-03	1.637690e-03	3.936890e-03	2.191366e-03	3.250729e-03	-1.386594e-03	-2.330062e-03	-2.132130e-03	-1.927622e-03	-1.730929e-03	-1.556908e-03	-1.178468e-03	-9.280731e-04	-6.649361e-04	-3.947633e-04	-1.152426e-04	1.702492e-04	4.530156e-04	7.046070e-04	2.331971e-03	2.515455e-03	2.684174e-03	2.792113e-03	2.915258e-03	3.896945e-03	3.843760e-03	1.017323e-03	1.013655e-03	9.944365e-04	6.098388e-04	6.455047e-04	3.760460e-03	3.595377e-03	3.299295e-03	2.845006e-03	3.392976e-03	3.526562e-03	3.660244e-03	3.780898e-03	3.863412e-03	3.964574e-03	1.732145e-03	1.879788e-03	-2.792830e-03	-2.670443e-03	8.353718e-04	9.550374e-04	9.979858e-04	2.544331e-04	3.089118e-04	-4.320372e-03	4.702503e-03	4.676447e-03	-5.633487e-03	-9.163758e-04	-3.828886e-03	-3.470926e-03	2.151925e-03	-1.935598e-03	-1.651755e-03	2.904548e-03	1.767233e-03	3.620147e-04	-1.618403e-03	-2.336453e-03	-3.081758e-03	9.239740e-04	1.884164e-03	-4.810474e-03	9.029627e-04	-1.414409e-03	3.674199e-03	1.040231e-03	-1.860455e-03	4.225008e-04	9.674277e-04	8.293650e-04	6.569580e-04	1.115654e-03	1.157564e-03	-1.305591e-03	-1.194980e-03	-6.478985e-03	-3.466120e-03	-3.612032e-03	-2.865817e-03	2.267600e-03	7.748502e-04	9.040174e-04	-6.809734e-04	-7.404875e-03	-7.483781e-03	-2.203730e-03	1.075876e-03	-2.970327e-03	-8.243617e-06	1.209540e-03	-1.248396e-03	-1.756510e-03	5.996382e-04	-2.229718e-03	-5.962941e-04	-5.116089e-04	-3.331185e-03	-1.993816e-03	1.042458e-03	1.262897e-03	9.200116e-04	-2.331772e-03	3.325908e-03	-7.761377e-04	-2.045810e-03	-1.966979e-03	1.165935e-03	-1.536489e-03	-2.768249e-03	9.723935e-04	2.138309e-03	5.536334e-04	-2.622204e-04	-8.003553e-04	8.849155e-04	8.910949e-04	9.202473e-04	9.476377e-04	1.380769e-03	4.695263e-04	9.881092e-04	1.012655e-03	3.867767e-04	9.025251e-04	8.959778e-04	9.219515e-04	-4.146776e-04	-3.072299e-04	-2.202425e-04	-1.072477e-03	2.942321e-04	3.433681e-04	-1.236655e-04	-2.866338e-05	8.730584e-04	-3.203515e-03	1.344316e-03	1.481064e-03	3.214142e-03	-2.293859e-03	-2.096612e-03	-1.366617e-03	-1.894621e-03	-1.702643e-03	-1.528981e-03	-1.190633e-03	-9.788575e-04	-7.400126e-04	-4.901541e-04	-2.327491e-04	3.335950e-05	3.014423e-04	2.274155e-03	2.324987e-03	2.478339e-03	2.669494e-03	2.857620e-03	3.049934e-03	3.514849e-03	3.393968e-03	9.140290e-04	8.871954e-04	5.173115e-04	5.541726e-04	3.255892e-03	3.044126e-03	2.711169e-03	2.264107e-03	1.702370e-03	3.351511e-03	3.469722e-03	3.576532e-03	3