# vtk DataFile Version 3.0
vtk output
ASCII
DATASET UNSTRUCTURED_GRID
POINTS 5233 float
9.997500e-01	-3.632909e-05	0.0	9.990000e-01	-1.452618e-04	0.0	9.977600e-01	-3.252008e-04	0.0	9.960200e-01	-5.774943e-04	0.0	9.937800e-01	-9.022942e-04	0.0	9.910500e-01	-1.298763e-03	0.0	9.878400e-01	-1.766726e-03	0.0	9.841300e-01	-2.311194e-03	0.0	9.799500e-01	-2.930640e-03	0.0	9.752800e-01	-3.631444e-03	0.0	9.701500e-01	-4.412625e-03	0.0	9.645400e-01	-5.280292e-03	0.0	9.584700e-01	-6.233365e-03	0.0	9.519400e-01	-7.272227e-03	0.0	9.449600e-01	-8.393908e-03	0.0	9.375400e-01	-9.593773e-03	0.0	9.296900e-01	-1.086609e-02	0.0	9.214000e-01	-1.220804e-02	0.0	9.127000e-01	-1.361074e-02	0.0	9.035800e-01	-1.507272e-02	0.0	8.940600e-01	-1.658877e-02	0.0	8.841500e-01	-1.815610e-02	0.0	8.738500e-01	-1.977361e-02	0.0	8.631800e-01	-2.143627e-02	0.0	8.521600e-01	-2.313752e-02	0.0	8.407700e-01	-2.487471e-02	0.0	8.290500e-01	-2.663345e-02	0.0	8.170100e-01	-2.840162e-02	0.0	8.046400e-01	-3.016792e-02	0.0	7.919700e-01	-3.191393e-02	0.0	7.790100e-01	-3.362378e-02	0.0	7.657800e-01	-3.528073e-02	0.0	7.522800e-01	-3.687177e-02	0.0	7.385200e-01	-3.838440e-02	0.0	7.245300e-01	-3.980643e-02	0.0	7.103200e-01	-4.113073e-02	0.0	6.958900e-01	-4.235375e-02	0.0	6.812700e-01	-4.347212e-02	0.0	6.664700e-01	-4.448693e-02	0.0	6.515000e-01	-4.540154e-02	0.0	6.363800e-01	-4.622067e-02	0.0	6.211300e-01	-4.695082e-02	0.0	6.057600e-01	-4.760016e-02	0.0	5.902800e-01	-4.817747e-02	0.0	5.747100e-01	-4.869148e-02	0.0	5.590600e-01	-4.915119e-02	0.0	5.433600e-01	-4.956464e-02	0.0	5.276100e-01	-4.993996e-02	0.0	5.118400e-01	-5.028359e-02	0.0	4.960500e-01	-5.060149e-02	0.0	4.802700e-01	-5.089775e-02	0.0	4.645100e-01	-5.117554e-02	0.0	4.487800e-01	-5.143670e-02	0.0	4.331100e-01	-5.168146e-02	0.0	4.175000e-01	-5.190932e-02	0.0	4.019700e-01	-5.211839e-02	0.0	3.865400e-01	-5.230586e-02	0.0	3.712300e-01	-5.246816e-02	0.0	3.560400e-01	-5.260130e-02	0.0	3.409900e-01	-5.270061e-02	0.0	3.261100e-01	-5.276113e-02	0.0	3.114000e-01	-5.277790e-02	0.0	2.968700e-01	-5.274582e-02	0.0	2.825500e-01	-5.265996e-02	0.0	2.684500e-01	-5.251559e-02	0.0	2.545700e-01	-5.230801e-02	0.0	2.409400e-01	-5.203324e-02	0.0	2.275700e-01	-5.168749e-02	0.0	2.144700e-01	-5.126729e-02	0.0	2.016600e-01	-5.076993e-02	0.0	1.891400e-01	-5.019238e-02	0.0	1.769300e-01	-4.953284e-02	0.0	1.650400e-01	-4.878952e-02	0.0	1.534900e-01	-4.796177e-02	0.0	1.422900e-01	-4.704883e-02	0.0	1.314400e-01	-4.604934e-02	0.0	1.209500e-01	-4.496296e-02	0.0	1.108500e-01	-4.379208e-02	0.0	1.011300e-01	-4.253503e-02	0.0	9.181000e-02	-4.119389e-02	0.0	8.290000e-02	-3.976997e-02	0.0	7.440000e-02	-3.826304e-02	0.0	6.633000e-02	-3.667657e-02	0.0	5.869000e-02	-3.501058e-02	0.0	5.149000e-02	-3.326708e-02	0.0	4.474000e-02	-3.144844e-02	0.0	3.844000e-02	-2.955433e-02	0.0	3.260000e-02	-2.758711e-02	0.0	2.723000e-02	-2.554977e-02	0.0	2.232000e-02	-2.343708e-02	0.0	1.790000e-02	-2.126113e-02	0.0	1.395000e-02	-1.901092e-02	0.0	1.049000e-02	-1.669561e-02	0.0	7.520000e-03	-1.431461e-02	0.0	5.040000e-03	-1.186637e-02	0.0	3.050000e-03	-9.347302e-03	0.0	1.560000e-03	-6.769269e-03	0.0	5.600000e-04	-4.108233e-03	0.0	6.000000e-05	-1.363608e-03	0.0	0.000000e+00	0.000000e+00	0.0	6.000000e-05	1.350236e-03	0.0	5.600000e-04	4.050826e-03	0.0	1.560000e-03	6.663226e-03	0.0	3.050000e-03	9.195473e-03	0.0	5.040000e-03	1.167583e-02	0.0	7.520000e-03	1.409653e-02	0.0	1.049000e-02	1.646478e-02	0.0	1.395000e-02	1.878581e-02	0.0	1.790000e-02	2.106403e-02	0.0	2.232000e-02	2.329392e-02	0.0	2.723000e-02	2.549065e-02	0.0	3.260000e-02	2.764558e-02	0.0	3.844000e-02	2.976800e-02	0.0	4.474000e-02	3.185849e-02	0.0	5.149000e-02	3.391797e-02	0.0	5.869000e-02	3.595015e-02	0.0	6.633000e-02	3.795531e-02	0.0	7.440000e-02	3.993367e-02	0.0	8.290000e-02	4.188739e-02	0.0	9.181000e-02	4.381361e-02	0.0	1.011300e-01	4.571359e-02	0.0	1.108500e-01	4.758588e-02	0.0	1.209500e-01	4.942683e-02	0.0	1.314400e-01	5.123782e-02	0.0	1.422900e-01	5.301272e-02	0.0	1.534900e-01	5.474871e-02	0.0	1.650400e-01	5.644398e-02	0.0	1.769300e-01	5.809472e-02	0.0	1.891400e-01	5.969553e-02	0.0	2.016600e-01	6.124223e-02	0.0	2.144700e-01	6.272926e-02	0.0	2.275700e-01	6.415328e-02	0.0	2.409400e-01	6.550849e-02	0.0	2.545700e-01	6.679020e-02	0.0	2.684500e-01	6.799357e-02	0.0	2.825500e-01	6.911218e-02	0.0	2.968700e-01	7.014214e-02	0.0	3.114000e-01	7.107860e-02	0.0	3.261100e-01	7.191555e-02	0.0	3.409900e-01	7.264840e-02	0.0	3.560400e-01	7.327286e-02	0.0	3.712300e-01	7.378330e-02	0.0	3.865400e-01	7.417483e-02	0.0	4.019700e-01	7.444303e-02	0.0	4.175000e-01	7.458295e-02	0.0	4.331100e-01	7.458992e-02	0.0	4.487800e-01	7.445955e-02	0.0	4.645100e-01	7.418745e-02	0.0	4.802700e-01	7.376991e-02	0.0	4.960500e-01	7.320341e-02	0.0	5.118400e-01	7.248482e-02	0.0	5.276100e-01	7.161270e-02	0.0	5.433600e-01	7.058503e-02	0.0	5.590600e-01	6.940265e-02	0.0	5.747100e-01	6.806549e-02	0.0	5.902800e-01	6.657731e-02	0.0	6.057600e-01	6.494175e-02	0.0	6.211300e-01	6.316504e-02	0.0	6.363800e-01	6.125402e-02	0.0	6.515000e-01	5.921698e-02	0.0	6.664700e-01	5.706516e-02	0.0	6.812700e-01	5.481151e-02	0.0	6.958900e-01	5.246892e-02	0.0	7.103200e-01	5.005129e-02	0.0	7.245300e-01	4.757686e-02	0.0	7.385200e-01	4.505941e-02	0.0	7.522800e-01	4.251466e-02	0.0	7.657800e-01	3.996213e-02	0.0	7.790100e-01	3.741749e-02	0.0	7.919700e-01	3.489399e-02	0.0	8.046400e-01	3.240819e-02	0.0	8.170100e-01	2.997405e-02	0.0	8.290500e-01	2.760884e-02	0.0	8.407700e-01	2.532127e-02	0.0	8.521600e-01	2.312328e-02	0.0	8.631800e-01	2.103157e-02	0.0	8.738500e-01	1.905016e-02	0.0	8.841500e-01	1.718895e-02	0.0	8.940600e-01	1.545535e-02	0.0	9.035800e-01	1.385019e-02	0.0	9.127000e-01	1.237271e-02	0.0	9.214000e-01	1.102010e-02	0.0	9.296900e-01	9.781662e-03	0.0	9.375400e-01	8.650401e-03	0.0	9.449600e-01	7.612208e-03	0.0	9.519400e-01	6.656126e-03	0.0	9.584700e-01	5.772587e-03	0.0	9.645400e-01	4.954359e-03	0.0	9.701500e-01	4.195689e-03	0.0	9.752800e-01	3.496291e-03	0.0	9.799500e-01	2.852720e-03	0.0	9.841300e-01	2.270023e-03	0.0	9.878400e-01	1.747228e-03	0.0	9.910500e-01	1.290667e-03	0.0	9.937800e-01	8.994899e-04	0.0	9.960200e-01	5.767420e-04	0.0	9.977600e-01	3.250644e-04	0.0	9.990000e-01	1.452495e-04	0.0	9.997500e-01	3.632890e-05	0.0	1.000000e+00	0.000000e+00	0.0	1.984229e+01	2.506660e+00	0.0	1.937166e+01	4.973800e+00	0.0	1.859553e+01	7.362490e+00	0.0	1.752613e+01	9.635070e+00	0.0	1.618034e+01	1.175571e+01	0.0	1.457937e+01	1.369094e+01	0.0	1.274848e+01	1.541027e+01	0.0	1.071654e+01	1.688656e+01	0.0	8.515590e+00	1.809654e+01	0.0	6.180340e+00	1.902113e+01	0.0	3.747630e+00	1.964575e+01	0.0	1.255810e+00	1.996053e+01	0.0	-1.255810e+00	1.996053e+01	0.0	-3.747630e+00	1.964574e+01	0.0	-6.180340e+00	1.902113e+01	0.0	-8.515590e+00	1.809654e+01	0.0	-1.071654e+01	1.688656e+01	0.0	-1.274848e+01	1.541026e+01	0.0	-1.457937e+01	1.369094e+01	0.0	-1.618034e+01	1.175570e+01	0.0	-1.752613e+01	9.635070e+00	0.0	-1.859553e+01	7.362490e+00	0.0	-1.937166e+01	4.973800e+00	0.0	-1.984229e+01	2.506660e+00	0.0	-2.000000e+01	0.000000e+00	0.0	-1.984229e+01	-2.506670e+00	0.0	-1.937166e+01	-4.973800e+00	0.0	-1.859553e+01	-7.362490e+00	0.0	-1.752613e+01	-9.635080e+00	0.0	-1.618034e+01	-1.175571e+01	0.0	-1.457937e+01	-1.369094e+01	0.0	-1.274848e+01	-1.541027e+01	0.0	-1.071653e+01	-1.688656e+01	0.0	-8.515580e+00	-1.809654e+01	0.0	-6.180340e+00	-1.902113e+01	0.0	-3.747620e+00	-1.964575e+01	0.0	-1.255810e+00	-1.996053e+01	0.0	1.255810e+00	-1.996053e+01	0.0	3.747630e+00	-1.964574e+01	0.0	6.180340e+00	-1.902113e+01	0.0	8.515590e+00	-1.809654e+01	0.0	1.071654e+01	-1.688656e+01	0.0	1.274848e+01	-1.541026e+01	0.0	1.457937e+01	-1.369094e+01	0.0	1.618034e+01	-1.175570e+01	0.0	1.752614e+01	-9.635070e+00	0.0	1.859553e+01	-7.362490e+00	0.0	1.937166e+01	-4.973790e+00	0.0	1.984229e+01	-2.506660e+00	0.0	2.000000e+01	0.000000e+00	0.0	6.093892e-02	-4.285144e-02	0.0	6.600410e-01	-5.844939e-02	0.0	4.255297e-01	8.863687e-02	0.0	6.904536e-01	6.677179e-02	0.0	3.791252e-01	-6.656260e-02	0.0	9.994589e-01	-7.258723e-04	0.0	9.985402e-01	-1.320872e-03	0.0	7.738251e-01	-4.634860e-02	0.0	6.897588e-01	-5.606349e-02	0.0	-1.367138e-03	6.233161e-03	0.0	7.467650e-01	-4.997311e-02	0.0	5.838090e-01	8.122916e-02	0.0	9.927651e-01	-3.598793e-03	0.0	9.898616e-01	-4.480982e-03	0.0	5.994275e-01	7.958836e-02	0.0	7.187102e-01	-5.322760e-02	0.0	-1.548094e-03	7.305687e-04	0.0	9.864673e-01	-5.441292e-03	0.0	9.825916e-01	-6.470515e-03	0.0	-1.358171e-03	-6.336027e-03	0.0	6.449375e-01	-5.947833e-02	0.0	8.244939e-01	-3.842106e-02	0.0	7.997632e-01	-4.246746e-02	0.0	3.482204e-01	8.660152e-02	0.0	8.478910e-01	-3.434813e-02	0.0	2.468390e-01	7.862192e-02	0.0	8.698983e-01	-3.032503e-02	0.0	1.001408e-02	2.079824e-02	0.0	8.904116e-01	-2.642047e-02	0.0	7.722818e-02	-4.682321e-02	0.0	9.093595e-01	-2.267674e-02	0.0	-1.865007e-03	-3.138557e-03	0.0	9.422484e-01	-1.580904e-02	0.0	9.266631e-01	-1.912583e-02	0.0	1.806769e-02	-2.637803e-02	0.0	4.256782e-01	-6.623083e-02	0.0	8.590773e-01	-3.232303e-02	0.0	9.560748e-01	-1.276843e-02	0.0	9.782290e-01	-7.589010e-03	0.0	9.680882e-01	-1.002215e-02	0.0	1.584746e-01	-5.900398e-02	0.0	9.000881e-01	-2.452666e-02	0.0	7.604299e-01	-4.820093e-02	0.0	9.971132e-01	-2.058079e-03	0.0	5.988429e-01	-6.197001e-02	0.0	4.413590e-01	-6.604490e-02	0.0	5.361230e-01	-6.418097e-02	0.0	4.728882e-01	-6.557080e-02	0.0	5.045102e-01	-6.495629e-02	0.0	4.886866e-01	-6.528085e-02	0.0	1.251652e-01	-5.514410e-02	0.0	2.799454e-02	-3.148915e-02	0.0	3.945492e-01	-6.649285e-02	0.0	4.640172e-02	-3.855324e-02	0.0	4.100682e-01	-6.638196e-02	0.0	3.187978e-01	-6.636792e-02	0.0	3.486567e-01	-6.657206e-02	0.0	3.367005e-02	-3.391128e-02	0.0	2.896281e-01	-6.592628e-02	0.0	9.346743e-01	-1.743395e-02	0.0	1.470184e-01	-5.780948e-02	0.0	1.948400e-01	-6.200962e-02	0.0	8.600599e-02	-4.867547e-02	0.0	1.048018e-01	-5.210645e-02	0.0	5.676108e-01	-6.321237e-02	0.0	1.702734e-01	-6.010386e-02	0.0	6.143295e-01	-6.122907e-02	0.0	8.803501e-01	-2.835590e-02	0.0	2.280418e-02	-2.897635e-02	0.0	9.951875e-01	-2.803889e-03	0.0	6.796488e-03	-1.820110e-02	0.0	1.798544e-02	2.626178e-02	0.0	9.182203e-01	-2.087471e-02	0.0	9.49388
[...]
POINT_DATA 5233

SCALARS Conservative_1 float 1
LOOKUP_TABLE default
1.391371e-02	6.313715e-03	4.991188e-03	4.008353e-03	3.385807e-03	2.917513e-03	2.552652e-03	2.262986e-03	2.033202e-03	1.850276e-03	1.706172e-03	1.594097e-03	1.509075e-03	1.446509e-03	1.402957e-03	1.373766e-03	1.357695e-03	1.347213e-03	1.342657e-03	1.344015e-03	1.355970e-03	1.373546e-03	1.399570e-03	1.436058e-03	1.480263e-03	1.535036e-03	1.594821e-03	1.661764e-03	1.729829e-03	1.797883e-03	1.863442e-03	1.919174e-03	1.968040e-03	1.999486e-03	2.020052e-03	2.021806e-03	2.011726e-03	1.984157e-03	1.946774e-03	1.894985e-03	1.837828e-03	1.771307e-03	1.703642e-03	1.631481e-03	1.561723e-03	1.491336e-03	1.425701e-03	1.362483e-03	1.304894e-03	1.251787e-03	1.204328e-03	1.161645e-03	1.123766e-03	1.091528e-03	1.062652e-03	1.039077e-03	1.017717e-03	1.000243e-03	9.836740e-04	9.696304e-04	9.552308e-04	9.418136e-04	9.265745e-04	9.112630e-04	8.927216e-04	8.727310e-04	8.483079e-04	8.209874e-04	7.884636e-04	7.515793e-04	7.089239e-04	6.601007e-04	6.050770e-04	5.425086e-04	4.727600e-04	3.947254e-04	3.075542e-04	2.114759e-04	1.049398e-04	-1.212028e-05	-1.413225e-04	-2.830025e-04	-4.385754e-04	-6.089400e-04	-7.960509e-04	-1.000444e-03	-1.224841e-03	-1.469480e-03	-1.736178e-03	-2.024154e-03	-2.331565e-03	-2.645209e-03	-2.964364e-03	-3.281395e-03	-3.420476e-03	-3.223185e-03	-2.955983e-03	-2.706488e-03	-2.250843e-03	-1.806262e-03	-1.416807e-03	-4.482338e-04	6.902020e-04	9.432574e-04	2.295662e-03	6.330893e-03	1.012154e-02	1.099526e-02	9.930973e-03	8.679373e-03	7.699603e-03	6.847372e-03	6.065578e-03	5.365808e-03	4.753503e-03	4.229885e-03	3.777245e-03	3.389656e-03	3.054538e-03	2.758898e-03	2.502591e-03	2.269985e-03	2.059809e-03	1.868051e-03	1.694711e-03	1.540522e-03	1.401877e-03	1.274834e-03	1.162511e-03	1.060081e-03	9.726262e-04	8.944400e-04	8.225945e-04	7.538824e-04	6.844756e-04	6.263102e-04	5.874133e-04	5.882039e-04	6.330676e-04	7.534077e-04	9.642845e-04	1.201630e-03	1.376355e-03	1.420056e-03	1.371028e-03	1.297143e-03	1.219124e-03	1.135964e-03	1.043522e-03	9.357746e-04	8.200955e-04	6.942063e-04	5.660073e-04	4.311040e-04	2.894593e-04	1.463739e-04	-4.328809e-06	-1.529156e-04	-3.026986e-04	-4.532831e-04	-6.000465e-04	-7.481037e-04	-8.897311e-04	-1.031892e-03	-1.166315e-03	-1.300520e-03	-1.426424e-03	-1.551497e-03	-1.668165e-03	-1.784083e-03	-1.892152e-03	-2.000224e-03	-2.100259e-03	-2.200813e-03	-2.297428e-03	-2.391253e-03	-2.483885e-03	-2.574576e-03	-2.669582e-03	-2.766280e-03	-2.872388e-03	-2.979448e-03	-3.088017e-03	-3.198788e-03	-3.322150e-03	-3.458146e-03	-3.612189e-03	-3.785085e-03	-3.981564e-03	-4.205121e-03	-4.461677e-03	-4.757874e-03	-5.103096e-03	-5.509025e-03	-5.992900e-03	-6.579615e-03	-7.438347e-03	-8.253274e-03	-1.442169e-02	-7.108065e-04	-8.710213e-06	-8.396365e-06	-7.952619e-06	-7.497234e-06	-6.881881e-06	-6.180452e-06	-5.291215e-06	-4.244525e-06	-3.029024e-06	-1.649343e-06	2.139130e-07	2.467599e-06	5.048256e-06	7.499485e-06	9.143906e-06	1.046061e-05	1.099517e-05	1.100654e-05	1.061400e-05	1.007657e-05	9.598078e-06	8.067110e-06	8.756704e-06	1.521725e-05	1.045383e-05	8.738426e-06	1.018170e-05	8.383215e-06	2.855263e-07	-1.386678e-08	-3.839886e-07	-1.125129e-06	-1.584479e-06	-2.186217e-06	-2.914511e-06	-3.661576e-06	-3.979622e-06	-4.717664e-06	-4.800990e-06	-5.743001e-06	-6.997082e-06	-7.830716e-06	-8.471828e-06	-8.902047e-06	-9.172171e-06	-9.331366e-06	-9.378404e-06	-9.298151e-06	-9.104580e-06	-8.968591e-06	-6.449461e-04	1.694429e-03	1.537289e-03	-6.259950e-04	8.769854e-04	1.051192e-02	7.190636e-03	1.690503e-03	1.762995e-03	-4.091943e-04	1.759994e-03	4.504779e-04	3.347875e-03	2.833956e-03	3.000469e-04	1.786460e-03	-1.712645e-03	2.455686e-03	2.169232e-03	-2.773932e-03	1.647540e-03	1.487812e-03	1.592524e-03	1.378363e-03	1.396257e-03	1.250995e-03	1.331722e-03	8.901344e-03	1.303304e-03	-3.403673e-04	1.309323e-03	-2.475498e-03	1.363343e-03	1.323821e-03	-2.209523e-03	9.429445e-04	1.359534e-03	1.458801e-03	1.947210e-03	1.639746e-03	4.327300e-04	1.303080e-03	1.731104e-03	5.192071e-03	1.472982e-03	9.717684e-04	1.231990e-03	1.040994e-03	1.128255e-03	1.082654e-03	2.131569e-04	-1.679942e-03	8.959779e-04	-1.008653e-03	9.183280e-04	8.138751e-04	8.437513e-04	-1.438422e-03	7.820397e-04	1.338889e-03	3.677140e-04	5.881723e-04	-2.077160e-04	2.315589e-05	1.349128e-03	4.911066e-04	1.534953e-03	1.312353e-03	-1.937396e-03	4.079354e-03	-3.031550e-03	8.225496e-03	1.316241e-03	1.402305e-03	1.774066e-03	1.660710e-04	1.438584e-03	7.201540e-04	1.289654e-03	1.780034e-03	1.644257e-03	1.229932e-04	6.630755e-04	1.411481e-03	1.734612e-03	-8.191901e-04	-3.245593e-03	-2.487738e-03	8.593130e-04	5.426274e-04	1.475519e-02	6.938884e-04	-8.669405e-05	7.980769e-04	7.437513e-04	1.004145e-03	1.781694e-03	-1.286209e-03	-2.991383e-03	8.754351e-04	-2.037822e-03	6.757259e-03	4.490330e-03	5.513666e-03	2.467458e-03	1.576713e-03	-7.737924e-03	1.004148e-03	1.330381e-03	-4.074483e-03	-3.671415e-03	-2.560935e-03	1.234200e-03	1.481126e-03	1.585333e-03	-3.002521e-03	-2.785451e-03	3.394559e-03	-4.323999e-03	-3.505826e-03	-3.229260e-03	2.878019e-03	4.072151e-03	1.103733e-03	1.195256e-03	1.734290e-03	1.121849e-03	1.412843e-03	1.598631e-03	1.982534e-03	2.289972e-03	-1.024273e-05	1.530774e-03	1.373823e-03	-3.210709e-04	5.991768e-04	-1.198106e-03	-9.196904e-04	-1.703100e-03	-1.459292e-03	-2.146962e-03	-1.932283e-03	-2.671378e-03	-2.353642e-03	-3.360141e-03	-2.896588e-03	-3.859109e-03	-2.251404e-03	-2.456498e-03	-1.818323e-03	-2.040257e-03	-1.329933e-03	-1.582299e-03	-7.735294e-04	-1.059917e-03	-1.653553e-04	-4.736615e-04	7.403878e-04	1.452774e-04	1.446001e-03	1.310220e-03	1.852076e-03	1.626672e-03	4.969640e-03	2.128348e-03	9.090503e-03	6.117054e-03	6.283274e-04	2.211689e-03	1.536282e-03	1.539156e-03	8.283978e-04	1.178388e-03	2.632384e-04	7.426814e-03	6.181024e-03	3.120192e-03	3.709382e-03	1.142776e-03	2.662591e-03	-4.617539e-03	-4.967584e-03	1.089319e-03	-5.398815e-03	-5.947868e-03	1.221267e-03	1.524199e-03	-3.112847e-03	-1.652743e-02	-9.535640e-03	-1.235637e-02	1.592701e-03	-1.214841e-03	-6.683267e-03	1.123488e-03	-3.222405e-03	-2.760753e-03	-4.858764e-04	2.945680e-04	7.636687e-04	3.715570e-03	-6.380770e-04	-1.284324e-03	6.377626e-04	1.546381e-03	1.222385e-03	-2.797001e-03	7.375141e-04	1.526691e-03	1.478165e-03	2.653750e-03	6.902360e-04	1.265194e-03	1.327570e-03	-2.739070e-04	-2.776343e-03	5.067236e-04	-2.337966e-03	1.445843e-03	2.628044e-04	1.560476e-03	1.458472e-03	8.553814e-04	-3.971519e-04	7.581911e-04	1.212892e-03	1.441838e-03	5.655197e-03	6.980855e-03	-2.159772e-04	-1.980841e-03	2.850139e-03	-3.715534e-04	2.167323e-03	-2.306227e-03	-5.169830e-03	1.802954e-03	1.285019e-03	-3.349269e-03	-2.412499e-03	-5.687027e-03	-3.506723e-03	-4.416687e-03	1.704370e-03	1.704400e-03	1.760826e-03	3.030800e-03	1.494541e-03	4.686103e-04	7.376599e-03	2.402719e-03	4.709248e-03	-3.892681e-03	-6.351236e-03	-2.517696e-03	3.229756e-04	-6.667528e-03	-8.289504e-03	-7.263394e-03	2.491760e-03	-2.793693e-04	-3.005817e-03	-2.236560e-03	-1.923515e-03	-2.093813e-03	3.593867e-03	-6.794228e-04	5.627582e-03	3.730126e-03	1.742346e-03	1.100029e-03	2.305402e-03	1.226273e-03	5.798122e-04	3.109749e-03	-2.561520e-03	8.265104e-04	1.759036e-03	1.292619e-03	1.578883e-03	1.241798e-03	1.216626e-03	-5.322754e-04	1.215095e-03	1.236461e-03	1.318165e-03	-1.624076e-03	1.371994e-03	1.542952e-03	2.040070e-03	1.184967e-04	1.533906e-03	1.510411e-03	4.600864e-03	8.870588e-04	9.222764e-04	9.621738e-04	-1.854208e-03	7.780338e-04	8.017296e-04	7.055923e-04	-1.203739e-03	1.253411e-03	1.279834e-03	1.943367e-04	-1.611428e-04	1.152821e-03	1.312043e-03	1.669226e-03	1.830991e-03	1.560147e-03	1.553893e-03	-5.902514e-05	3.482646e-05	1.204615e-03	1.260155e-03	-1.015359e-03	-8.401733e-04	-2.575301e-03	7.224636e-04	7.391343e-04	3.777941e-04	4.259520e-04	5.394078e-04	5.691401e-04	6.567418e-04	6.733196e-04	5.946008e-04	-1.704788e-03	-3.103741e-03	5.121216e-03	-4.753642e-03	1.160937e-03	1.403110e-03	1.504930e-03	1.592121e-03	-4.132161e-03	-3.686723e-03	-2.854374e-03	1.660050e-03	1.711511e-03	1.786833e-03	-2.739944e-03	-3.208081e-03	4.005674e-03	4.336321e-03	1.651565e-03	1.609082e-03	2.278840e-03	2.537995e-03	2.686367e-03	-1.505918e-03	-9.711678e-04	-8.286558e-04	-1.380922e-03	-1.868137e-03	-2.627262e-03	-2.200443e-03	-2.091045e-03	-1.749415e-03	-1.631802e-03	-1.247682e-03	-1.113631e-03	-6.784917e-04	-5.283650e-04	-5.518462e-05	1.035760e-04	8.849720e-04	1.026976e-03	2.647104e-04	4.241554e-04	1.823863e-03	1.896521e-03	1.976600e-03	2.067901e-03	7.444610e-03	5.569174e-03	6.037465e-03	1.404152e-03	1.363830e-03	1.004867e-03	1.051965e-03	2.307353e-04	6.508495e-03	3.233346e-03	3.459820e-03	1.616644e-03	1.578266e-03	1.825800e-03	1.850730e-03	-3.082825e-03	-2.965017e-03	1.365617e-03	1.412555e-03	-1.406459e-03	-2.989542e-03	6.181145e-04	-2.583763e-03	6.526618e-04	5.205563e-04	1.288255e-03	9.384298e-04	1.122921e-03	-5.066409e-03	-4.691094e-03	-3.463270e-03	5.130109e-04	-5.471180e-03	-1.027799e-02	-9.588274e-03	4.047717e-03	-1.620483e-03	-1.979451e-03	-1.829058e-03	-3.385401e-04	1.143485e-03	2.547410e-03	9.603157e-04	7.668953e-03	-2.769643e-03	1.356311e-03	-2.918288e-03	1.361838e-03	-2.191965e-03	1.119174e-03	-2.594105e-03	5.775103e-04	1.134271e-03	1.339472e-03	2.885761e-03	-2.402249e-03	-4.096601e-03	1.377004e-03	-3.153411e-03	-2.323146e-06	-6.013080e-03	1.505101e-03	1.971446e-03	2.152723e-03	2.556861e-03	4.003708e-03	-1.031722e-02	-2.771451e-03	-8.625048e-04	6.113430e-03	-1.371809e-03	1.401279e-03	-4.514431e-04	-2.057829e-03	1.592552e-04	7.537634e-04	-1.766485e-03	4.709137e-03	-1.806488e-03	-1.322089e-03	-1.629951e-04	-4.372700e-03	-3.300445e-03	-2.343356e-03	-2.238507e-03	2.111265e-03	1.988741e-03	2.084118e-03	3.200891e-03	1.287452e-03	1.318086e-03	3.530454e-04	5.888359e-03	2.665157e-03	-3.855286e-03	-6.776953e-03	2.508357e-03	-4.009751e-04	-2.905916e-03	-2.352366e-03	-1.562213e-03	6.582020e-03	7.621210e-03	1.505752e-03	2.246444e-03	8.063553e-04	7.252166e-04	1.898364e-03	1.178687e-03	1.153258e-03	1.109208e-03	1.105003e-03	-7.099632e-04	-5.754524e-04	1.103585e-03	1.111006e-03	1.255293e-03	1.318585e-03	2.001330e-03	1.335179e-03	1.317994e-03	3.355416e-03	7.867597e-04	8.192220e-04	6.735116e-04	6.988293e-04	-1.369079e-03	1.171001e-03	1.206565e-03	2.532903e-05	9.538243e-05	9.842045e-04	1.029287e-03	1.636377e-03	1.800433e-03	1.364237e-03	1.356347e-03	-2.347338e-04	-1.395028e-04	-5.231129e-05	1.077203e-03	1.122922e-03	-1.186793e-03	-1.015256e-03	-8.553533e-04	5.941468e-04	6.135984e-04	6.313138e-04	2.160339e-04	2.668556e-04	3.134706e-04	3.904746e-04	4.212380e-04	5.412056e-04	5.585835e-04	4.514302e-04	4.827238e-03	1.616309e-03	1.711180e-03	-3.647427e-03	1.784152e-03	1.842292e-03	1.878414e-03	1.916138e-03	-2.667745e-03	4.255958e-03	4.534390e-03	1.985832e-03	2.029438e-03	2.782130e-03	2.908301e-03	3.047852e-03	-7.744243e-04	-2.557492e-03	-2.446797e-03	-2.135151e-03	-2.026102e-03	-1.918210e-03	-1.685075e-03	-1.571860e-03	-1.450223e-03	-1.192964e-03	-1.058049e-03	-9.185561e-04	-6.267297e-04	-4.755408e-04	-3.201611e-04	1.582417e-04	1.106370e-03	1.244308e-03	3.209560e-04	4.822274e-04	6.426615e-04	2.150081e-03	2.219766e-03	2.292460e-03	2.372836e-03	2.458540e-03	5.129786e-03	5.432836e-03	1.263144e-03	1.235012e-03	1.204540e-03	8.552292e-04	8.975668e-04	5.723367e-03	5.970393e-03	3.372825e-03	3.562012e-03	3.773134e-03	2.043053e-03	1.958597e-03	2.034966e-03	2.118537e-03	-3.021997e-03	-2.898063e-03	-2.783277e-03	1.169584e-03	1.211947e-03	1.253141e-03	4.764231e-04	5.008050e-04	-2.567211e-03	-3.964033e-04	-5.443389e-03	-3.968599e-03	8.593309e-04	-1.803443e-03	4.275446e-03	1.026658e-03	1.054323e-03	-1.491769e-03	-4.772990e-03	1.634814e-03	-2.707814e-03	4.704769e-03	-2.533211e-03	-3.223885e-03	-5.062872e-03	-8.801212e-04	1.540591e-04	-2.992372e-04	-5.133526e-03	1.954872e-03	1.147430e-03	6.615574e-05	-1.855325e-03	5.657125e-04	-4.992283e-04	6.413058e-04	4.204057e-04	-4.208433e-03	1.114830e-03	-3.079142e-03	-2.947775e-03	-1.161921e-03	2.876791e-03	2.259543e-03	2.034308e-03	4.210034e-03	1.019873e-03	-7.039300e-03	-4.476614e-03	2.741080e-03	1.416744e-03	-2.039763e-03	1.202549e-03	-2.651596e-03	1.194710e-03	1.216611e-03	-2.219521e-03	2.250173e-03	-2.389157e-03	-1.651615e-03	1.523332e-03	2.385887e-03	-1.372721e-03	3.771170e-03	-1.026318e-06	-2.173973e-03	2.372934e-03	2.344034e-03	2.290932e-03	1.163540e-03	1.169607e-03	-3.750192e-03	2.229448e-03	6.779203e-04	-2.734472e-03	-2.423468e-03	-1.667334e-03	1.320453e-03	1.839983e-03	9.528281e-04	1.052841e-03	1.031455e-03	1.007381e-03	1.002794e-03	-7.333286e-04	-6.116591e-04	9.989633e-04	1.003028e-03	1.015187e-03	1.177282e-03	1.240986e-03	1.191220e-03	1.156496e-03	2.454694e-03	6.736959e-04	7.070454e-04	5.864669e-04	6.151775e-04	1.086949e-03	1.125799e-03	-5.964654e-05	2.203850e-06	8.892866e-04	1.533767e-03	1.675105e-03	1.206060e-03	1.189486e-03	-3.003472e-04	-2.147924e-04	-1.309231e-04	9.422055e-04	9.715313e-04	-1.323297e-03	-1.160648e-03	-1.005059e-03	-8.637530e-04	4.801734e-04	5.012823e-04	5.204425e-04	5.429011e-04	1.164215e-04	1.679507e-04	2.095713e-04	2.509741e-04	2.844142e-04	4.615851e-04	4.401059e-04	3.182146e-04	1.748714e-03	-3.556060e-03	-3.382002e-03	1.829296e-03	1.897164e-03	1.947268e-03	1.980234e-03	2.001309e-03	4.403189e-03	4.588267e-03	2.272072e-03	2.311743e-03	2.985967e-03	3.098827e-03	3.222732e-03	3.357033e-03	-2.479493e-03	-2.374636e-03	-2.271575e-03	-2.072213e-03	-1.969858e-03	-1.862765e-03	-1.756211e-03	-1.530112e-03	-1.408574e-03	-1.300091e-03	-1.038585e-03	-8.936509e-04	-7.616506e-04	-6.100797e-04	-4.696663e-04	-3.120556e-04	-1.628507e-04	1.383320e-03	1.246208e-03	3.163576e-04	4.754207e-04	6.384354e-04	8.021801e-04	2.378308e-03	2.450491e-03	2.528189e-03	2.608911e-03	2.689375e-03	2.779252e-03	4.761662e-03	4.921116e-03	1.118240e-03	1.090990e-03	1.072234e-03	7.360335e-04	7.816915e-04	8.101637e-04	5.055418e-03	5.125949e-03	5.064018e-03	3.504183e-03	3.664335e-03	3.842701e-03	4.025461e-03	2.028112e-03	2.082076e-03	2.165372e-03	2.286312e-03	-2.589811e-03	-2.821826e-03	-2.708166e-03	1.025200e-03	1.050581e-03	1.101535e-03	1.119304e-03	3.461804e-04	3.743016e-04	3.967024e-04	-2.042524e-03	-4.894044e-03	1.212435e-03	-7.673911e-03	-2.190681e-03	1.074640e-03	-4.405706e-04	-2.317833e-03	-3.606029e-03	-2.498929e-03	-1.566339e-03	-1.284318e-05	3.121049e-03	2.985889e-03	-2.049743e-04	-1.754021e-03	-2.082015e-03	-2.184186e-03	-2.079710e-03	-2.568014e-03	2.228560e-03	2.469277e-03	1.292750e-03	1.746203e-03	9.750427e-04	1.031864e-03	4.936933e-04	-4.411918e-03	-2.431204e-03	-2.743521e-03	1.273761e-03	1.520745e-03	2.040661e-04	-9.524914e-04	1.709927e-03	7.600485e-04	2.371446e-03	-4.206602e-03	-5.346360e-04	-7.964638e-03	-3.790757e-03	-2.245913e-03	4.557894e-03	5.097027e-03	9.571716e-04	-1.418926e-03	-2.533040e-03	3.767617e-03	-2.411775e-03	-2.991672e-03	-8.323009e-04	-3.000895e-03	-4.916327e-04	-1.890530e-03	3.695464e-04	3.383065e-04	-3.984306e-03	1.061221e-03	-2.866135e-03	1.605048e-03	1.056581e-03	-1.325803e-03	2.535889e-03	2.516588e-03	2.466350e-03	1.023265e-03	1.864929e-03	6.985073e-04	-2.432762e-03	-1.727732e-03	9.478331e-04	9.449233e-04	9.260575e-04	9.263432e-04	-6.384458e-04	-7.477917e-04	9.125634e-04	9.194065e-04	9.202594e-04	9.270041e-04	1.087388e-03	1.144619e-03	1.055846e-03	1.865951e-03	5.814829e-04	6.051610e-04	5.254596e-04	5.437441e-04	1.003249e-03	1.040445e-03	-1.302395e-04	-5.985460e-05	1.386187e-03	1.491184e-03	1.062287e-03	-3.518164e-04	-2.623689e-04	-1.952458e-04	8.326993e-04	-1.271560e-03	-1.125347e-03	-9.896245e-04	-8.651637e-04	3.821286e-04	4.118620e-04	4.245957e-04	4.554244e-04	4.723438e-04	4.869144e-05	8.485887e-05	1.377482e-04	1.654437e-04	2.105113e-04	-3.434307e-03	-3.275130e-03	-3.128768e-03	1.817174e-03	1.884919e-03	1.954740e-03	1.994588e-03	2.031872e-03	4.255778e-03	4.341491e-03	2.449757e-03	2.444454e-03	3.213668e-03	3.323610e-03	3.454682e-03	-2.316092e-03	-2.226601e-03	-2.122646e-03	-2.036582e-03	-1.926386e-03	-1.831655e-03	-1.717176e-03	-1.561232e-03	-1.379750e-03	-1.203826e-03	-6.797937e-04	-3.969055e-04	-1.011403e-04	5.151728e-04	8.212239e-04	2.495911e-03	2.560294e-03	2.647812e-03	2.733869e-03	2.815190e-03	2.911850e-03	3.008341e-03	4.400170e-03	4.442913e-03	9.947155e-04	9.874422e-04	9.680650e-04	6.351801e-04	6.906136e-04	4.454054e-03	4.386868e-03	4.188127e-03	3.586778e-03	3.723881e-03	3.872187e-03	4.011276e-03	4.135281e-03	2.053830e-03	2.090643e-03	2.131073e-03	2.225305e-03	-2.632002e-03	-2.527837e-03	9.045916e-04	9.701918e-04	2.332277e-04	2.730083e-04	2.899824e-04	3.240544e-04	5.238902e-03	-8.008061e-03	-2.111605e-03	-2.040213e-03	1.334543e-03	1.129706e-03	-3.737708e-03	-1.248396e-03	-2.882645e-03	2.141713e-03	1.257289e-03	-2.409188e-03	-1.467587e-03	-1.997146e-03	2.299925e-03	-4.778595e-03	1.511614e-03	-7.598067e-04	-1.872475e-03	1.073536e-03	6.273658e-04	-3.569622e-03	2.882521e-04	8.899638e-04	8.648069e-04	8.148744e-04	-4.703954e-04	-4.389965e-05	-2.349938e-03	4.498858e-04	-6.519743e-04	-5.592660e-04	3.306423e-03	-3.275506e-03	-2.318774e-03	-1.656936e-03	2.359120e-03	1.022860e-03	-7.558102e-03	-3.416921e-03	-2.148242e-03	-2.433075e-03	1.337592e-03	9.382537e-04	1.598210e-03	1.787366e-03	-3.926031e-03	-1.780289e-03	-4.867839e-03	-2.333780e-03	4.609277e-03	-1.341794e-03	-2.249415e-03	-2.189830e-03	1.160753e-03	-1.599861e-03	-2.768948e-03	-2.661551e-03	1.380390e-03	2.511432e-03	2.563506e-03	9.292617e-04	6.299989e-04	-1.424556e-04	-1.742447e-03	8.577600e-04	8.451996e-04	-7.540639e-04	8.422735e-04	8.406918e-04	9.789123e-04	1.436214e-03	5.024715e-04	9.116780e-04	9.423142e-04	-1.489587e-04	1.189516e-03	9.310752e-04	9.206898e-04	-3.443292e-04	-2.473836e-04	6.902156e-04	-1.211204e-03	-1.078670e-03	-9.643840e-04	-8.587037e-04	3.332149e-04	3.795678e-04	4.083638e-04	4.457674e-05	1.201484e-04	-3.137353e-03	-3.006465e-03	1.928420e-03	2.017483e-03	4.050333e-03	2.552543e-03	3.462315e-03	-1.195887e-03	-2.129164e-03	-1.935601e-03	-1.734177e-03	-1.539858e-03	-1.366673e-03	-9.867977e-04	-7.341631e-04	-4.672837e-04	-1.920850e-04	9.368893e-05	3.870885e-04	6.795576e-04	9.422546e-04	2.634854e-03	2.793481e-03	2.947055e-03	3.053961e-03	3.161813e-03	4.013815e-03	3.969402e-03	9.019918e-04	8.917067e-04	8.676452e-04	5.372508e-04	5.720827e-04	3.894828e-03	3.737063e-03	3.450877e-03	3.012910e-03	3.588860e-03	3.707985e-03	3.825920e-03	3.927689e-03	3.992362e-03	4.087245e-03	2.075022e-03	2.132384e-03	-2.573893e-03	-2.457581e-03	7.545539e-04	8.668442e-04	9.056420e-04	1.851953e-04	2.398788e-04	-4.019137e-03	4.041997e-03	4.023678e-03	-5.232850e-03	-9.824147e-04	-3.563712e-03	-3.303723e-03	1.794108e-03	-1.988038e-03	-1.711478e-03	2.456313e-03	1.458396e-03	5.138453e-04	-1.553254e-03	-2.345654e-03	-2.857728e-03	8.281956e-04	2.115602e-03	-4.473514e-03	7.557334e-04	-1.477150e-03	3.760170e-03	1.196948e-03	-1.915771e-03	3.583533e-04	7.950407e-04	7.490159e-04	5.857763e-04	9.053281e-04	9.380481e-04	-1.369437e-03	-1.259696e-03	-6.031569e-03	-3.222504e-03	-3.360564e-03	-2.651573e-03	2.503255e-03	1.006470e-03	8.158676e-04	-7.475615e-04	-6.862258e-03	-6.940265e-03	-2.191295e-03	8.744298e-04	-2.751412e-03	-1.819971e-04	9.798771e-04	-1.157379e-03	-1.814420e-03	5.306251e-04	-2.262737e-03	-6.626510e-04	-5.777483e-04	-3.094806e-03	-1.960395e-03	8.491114e-04	1.022530e-03	8.279585e-04	-2.334749e-03	2.806148e-03	-8.423055e-04	-2.097844e-03	-2.019781e-03	1.429897e-03	-1.597805e-03	-2.557760e-03	1.218379e-03	2.298864e-03	7.737458e-04	-1.260427e-04	-6.852307e-04	7.563863e-04	7.530096e-04	7.641542e-04	7.821581e-04	1.121929e-03	4.043761e-04	8.092050e-04	8.268587e-04	3.230597e-04	7.925277e-04	7.804601e-04	8.221151e-04	-4.802924e-04	-3.728674e-04	-2.852615e-04	-1.137758e-03	2.315778e-04	2.803029e-04	-1.880354e-04	-9.245642e-05	7.889266e-04	-2.973548e-03	1.632779e-03	1.802460e-03	3.396400e-03	-2.101084e-03	-1.908703e-03	-1.185441e-03	-1.710318e-03	-1.520591e-03	-1.347850e-03	-1.008666e-03	-7.951240e-04	-5.533788e-04	-2.995107e-04	-3.686715e-05	2.358193e-04	5.119985e-04	2.593276e-03	2.631180e-03	2.734157e-03	2.896245e-03	3.078296e-03	3.252630e-03	3.602427e-03	3.493762e-03	8.094921e-04	7.663668e-04	4.508073e-04	4.866330e-04	3.366152e-03	3.161555e-03	2.836785e-03	2.401934e-03	1.852780e-03	3.510598e-03	3.608046e-03	3.697415e-03	3.755700e-03