# vtk DataFile Version 3.0
vtk output
ASCII
DATASET UNSTRUCTURED_GRID
POINTS 5233 float
9.997500e-01	-3.632909e-05	0.0	9.990000e-01	-1.452618e-04	0.0	9.977600e-01	-3.252008e-04	0.0	9.960200e-01	-5.774943e-04	0.0	9.937800e-01	-9.022942e-04	0.0	9.910500e-01	-1.298763e-03	0.0	9.878400e-01	-1.766726e-03	0.0	9.841300e-01	-2.311194e-03	0.0	9.799500e-01	-2.930640e-03	0.0	9.752800e-01	-3.631444e-03	0.0	9.701500e-01	-4.412625e-03	0.0	9.645400e-01	-5.280292e-03	0.0	9.584700e-01	-6.233365e-03	0.0	9.519400e-01	-7.272227e-03	0.0	9.449600e-01	-8.393908e-03	0.0	9.375400e-01	-9.593773e-03	0.0	9.296900e-01	-1.086609e-02	0.0	9.214000e-01	-1.220804e-02	0.0	9.127000e-01	-1.361074e-02	0.0	9.035800e-01	-1.507272e-02	0.0	8.940600e-01	-1.658877e-02	0.0	8.841500e-01	-1.815610e-02	0.0	8.738500e-01	-1.977361e-02	0.0	8.631800e-01	-2.143627e-02	0.0	8.521600e-01	-2.313752e-02	0.0	8.407700e-01	-2.487471e-02	0.0	8.290500e-01	-2.663345e-02	0.0	8.170100e-01	-2.840162e-02	0.0	8.046400e-01	-3.016792e-02	0.0	7.919700e-01	-3.191393e-02	0.0	7.790100e-01	-3.362378e-02	0.0	7.657800e-01	-3.528073e-02	0.0	7.522800e-01	-3.687177e-02	0.0	7.385200e-01	-3.838440e-02	0.0	7.245300e-01	-3.980643e-02	0.0	7.103200e-01	-4.113073e-02	0.0	6.958900e-01	-4.235375e-02	0.0	6.812700e-01	-4.347212e-02	0.0	6.664700e-01	-4.448693e-02	0.0	6.515000e-01	-4.540154e-02	0.0	6.363800e-01	-4.622067e-02	0.0	6.211300e-01	-4.695082e-02	0.0	6.057600e-01	-4.760016e-02	0.0	5.902800e-01	-4.817747e-02	0.0	5.747100e-01	-4.869148e-02	0.0	5.590600e-01	-4.915119e-02	0.0	5.433600e-01	-4.956464e-02	0.0	5.276100e-01	-4.993996e-02	0.0	5.118400e-01	-5.028359e-02	0.0	4.960500e-01	-5.060149e-02	0.0	4.802700e-01	-5.089775e-02	0.0	4.645100e-01	-5.117554e-02	0.0	4.487800e-01	-5.143670e-02	0.0	4.331100e-01	-5.168146e-02	0.0	4.175000e-01	-5.190932e-02	0.0	4.019700e-01	-5.211839e-02	0.0	3.865400e-01	-5.230586e-02	0.0	3.712300e-01	-5.246816e-02	0.0	3.560400e-01	-5.260130e-02	0.0	3.409900e-01	-5.270061e-02	0.0	3.261100e-01	-5.276113e-02	0.0	3.114000e-01	-5.277790e-02	0.0	2.968700e-01	-5.274582e-02	0.0	2.825500e-01	-5.265996e-02	0.0	2.684500e-01	-5.251559e-02	0.0	2.545700e-01	-5.230801e-02	0.0	2.409400e-01	-5.203324e-02	0.0	2.275700e-01	-5.168749e-02	0.0	2.144700e-01	-5.126729e-02	0.0	2.016600e-01	-5.076993e-02	0.0	1.891400e-01	-5.019238e-02	0.0	1.769300e-01	-4.953284e-02	0.0	1.650400e-01	-4.878952e-02	0.0	1.534900e-01	-4.796177e-02	0.0	1.422900e-01	-4.704883e-02	0.0	1.314400e-01	-4.604934e-02	0.0	1.209500e-01	-4.496296e-02	0.0	1.108500e-01	-4.379208e-02	0.0	1.011300e-01	-4.253503e-02	0.0	9.181000e-02	-4.119389e-02	0.0	8.290000e-02	-3.976997e-02	0.0	7.440000e-02	-3.826304e-02	0.0	6.633000e-02	-3.667657e-02	0.0	5.869000e-02	-3.501058e-02	0.0	5.149000e-02	-3.326708e-02	0.0	4.474000e-02	-3.144844e-02	0.0	3.844000e-02	-2.955433e-02	0.0	3.260000e-02	-2.758711e-02	0.0	2.723000e-02	-2.554977e-02	0.0	2.232000e-02	-2.343708e-02	0.0	1.790000e-02	-2.126113e-02	0.0	1.395000e-02	-1.901092e-02	0.0	1.049000e-02	-1.669561e-02	0.0	7.520000e-03	-1.431461e-02	0.0	5.040000e-03	-1.186637e-02	0.0	3.050000e-03	-9.347302e-03	0.0	1.560000e-03	-6.769269e-03	0.0	5.600000e-04	-4.108233e-03	0.0	6.000000e-05	-1.363608e-03	0.0	0.000000e+00	0.000000e+00	0.0	6.000000e-05	1.350236e-03	0.0	5.600000e-04	4.050826e-03	0.0	1.560000e-03	6.663226e-03	0.0	3.050000e-03	9.195473e-03	0.0	5.040000e-03	1.167583e-02	0.0	7.520000e-03	1.409653e-02	0.0	1.049000e-02	1.646478e-02	0.0	1.395000e-02	1.878581e-02	0.0	1.790000e-02	2.106403e-02	0.0	2.232000e-02	2.329392e-02	0.0	2.723000e-02	2.549065e-02	0.0	3.260000e-02	2.764558e-02	0.0	3.844000e-02	2.976800e-02	0.0	4.474000e-02	3.185849e-02	0.0	5.149000e-02	3.391797e-02	0.0	5.869000e-02	3.595015e-02	0.0	6.633000e-02	3.795531e-02	0.0	7.440000e-02	3.993367e-02	0.0	8.290000e-02	4.188739e-02	0.0	9.181000e-02	4.381361e-02	0.0	1.011300e-01	4.571359e-02	0.0	1.108500e-01	4.758588e-02	0.0	1.209500e-01	4.942683e-02	0.0	1.314400e-01	5.123782e-02	0.0	1.422900e-01	5.301272e-02	0.0	1.534900e-01	5.474871e-02	0.0	1.650400e-01	5.644398e-02	0.0	1.769300e-01	5.809472e-02	0.0	1.891400e-01	5.969553e-02	0.0	2.016600e-01	6.124223e-02	0.0	2.144700e-01	6.272926e-02	0.0	2.275700e-01	6.415328e-02	0.0	2.409400e-01	6.550849e-02	0.0	2.545700e-01	6.679020e-02	0.0	2.684500e-01	6.799357e-02	0.0	2.825500e-01	6.911218e-02	0.0	2.968700e-01	7.014214e-02	0.0	3.114000e-01	7.107860e-02	0.0	3.261100e-01	7.191555e-02	0.0	3.409900e-01	7.264840e-02	0.0	3.560400e-01	7.327286e-02	0.0	3.712300e-01	7.378330e-02	0.0	3.865400e-01	7.417483e-02	0.0	4.019700e-01	7.444303e-02	0.0	4.175000e-01	7.458295e-02	0.0	4.331100e-01	7.458992e-02	0.0	4.487800e-01	7.445955e-02	0.0	4.645100e-01	7.418745e-02	0.0	4.802700e-01	7.376991e-02	0.0	4.960500e-01	7.320341e-02	0.0	5.118400e-01	7.248482e-02	0.0	5.276100e-01	7.161270e-02	0.0	5.433600e-01	7.058503e-02	0.0	5.590600e-01	6.940265e-02	0.0	5.747100e-01	6.806549e-02	0.0	5.902800e-01	6.657731e-02	0.0	6.057600e-01	6.494175e-02	0.0	6.211300e-01	6.316504e-02	0.0	6.363800e-01	6.125402e-02	0.0	6.515000e-01	5.921698e-02	0.0	6.664700e-01	5.706516e-02	0.0	6.812700e-01	5.481151e-02	0.0	6.958900e-01	5.246892e-02	0.0	7.103200e-01	5.005129e-02	0.0	7.245300e-01	4.757686e-02	0.0	7.385200e-01	4.505941e-02	0.0	7.522800e-01	4.251466e-02	0.0	7.657800e-01	3.996213e-02	0.0	7.790100e-01	3.741749e-02	0.0	7.919700e-01	3.489399e-02	0.0	8.046400e-01	3.240819e-02	0.0	8.170100e-01	2.997405e-02	0.0	8.290500e-01	2.760884e-02	0.0	8.407700e-01	2.532127e-02	0.0	8.521600e-01	2.312328e-02	0.0	8.631800e-01	2.103157e-02	0.0	8.738500e-01	1.905016e-02	0.0	8.841500e-01	1.718895e-02	0.0	8.940600e-01	1.545535e-02	0.0	9.035800e-01	1.385019e-02	0.0	9.127000e-01	1.237271e-02	0.0	9.214000e-01	1.102010e-02	0.0	9.296900e-01	9.781662e-03	0.0	9.375400e-01	8.650401e-03	0.0	9.449600e-01	7.612208e-03	0.0	9.519400e-01	6.656126e-03	0.0	9.584700e-01	5.772587e-03	0.0	9.645400e-01	4.954359e-03	0.0	9.701500e-01	4.195689e-03	0.0	9.752800e-01	3.496291e-03	0.0	9.799500e-01	2.852720e-03	0.0	9.841300e-01	2.270023e-03	0.0	9.878400e-01	1.747228e-03	0.0	9.910500e-01	1.290667e-03	0.0	9.937800e-01	8.994899e-04	0.0	9.960200e-01	5.767420e-04	0.0	9.977600e-01	3.250644e-04	0.0	9.990000e-01	1.452495e-04	0.0	9.997500e-01	3.632890e-05	0.0	1.000000e+00	0.000000e+00	0.0	1.984229e+01	2.506660e+00	0.0	1.937166e+01	4.973800e+00	0.0	1.859553e+01	7.362490e+00	0.0	1.752613e+01	9.635070e+00	0.0	1.618034e+01	1.175571e+01	0.0	1.457937e+01	1.369094e+01	0.0	1.274848e+01	1.541027e+01	0.0	1.071654e+01	1.688656e+01	0.0	8.515590e+00	1.809654e+01	0.0	6.180340e+00	1.902113e+01	0.0	3.747630e+00	1.964575e+01	0.0	1.255810e+00	1.996053e+01	0.0	-1.255810e+00	1.996053e+01	0.0	-3.747630e+00	1.964574e+01	0.0	-6.180340e+00	1.902113e+01	0.0	-8.515590e+00	1.809654e+01	0.0	-1.071654e+01	1.688656e+01	0.0	-1.274848e+01	1.541026e+01	0.0	-1.457937e+01	1.369094e+01	0.0	-1.618034e+01	1.175570e+01	0.0	-1.752613e+01	9.635070e+00	0.0	-1.859553e+01	7.362490e+00	0.0	-1.937166e+01	4.973800e+00	0.0	-1.984229e+01	2.506660e+00	0.0	-2.000000e+01	0.000000e+00	0.0	-1.984229e+01	-2.506670e+00	0.0	-1.937166e+01	-4.973800e+00	0.0	-1.859553e+01	-7.362490e+00	0.0	-1.752613e+01	-9.635080e+00	0.0	-1.618034e+01	-1.175571e+01	0.0	-1.457937e+01	-1.369094e+01	0.0	-1.274848e+01	-1.541027e+01	0.0	-1.071653e+01	-1.688656e+01	0.0	-8.515580e+00	-1.809654e+01	0.0	-6.180340e+00	-1.902113e+01	0.0	-3.747620e+00	-1.964575e+01	0.0	-1.255810e+00	-1.996053e+01	0.0	1.255810e+00	-1.996053e+01	0.0	3.747630e+00	-1.964574e+01	0.0	6.180340e+00	-1.902113e+01	0.0	8.515590e+00	-1.809654e+01	0.0	1.071654e+01	-1.688656e+01	0.0	1.274848e+01	-1.541026e+01	0.0	1.457937e+01	-1.369094e+01	0.0	1.618034e+01	-1.175570e+01	0.0	1.752614e+01	-9.635070e+00	0.0	1.859553e+01	-7.362490e+00	0.0	1.937166e+01	-4.973790e+00	0.0	1.984229e+01	-2.506660e+00	0.0	2.000000e+01	0.000000e+00	0.0	6.093892e-02	-4.285144e-02	0.0	6.600410e-01	-5.844939e-02	0.0	4.255297e-01	8.863687e-02	0.0	6.904536e-01	6.677179e-02	0.0	3.791252e-01	-6.656260e-02	0.0	9.994589e-01	-7.258723e-04	0.0	9.985402e-01	-1.320872e-03	0.0	7.738251e-01	-4.634860e-02	0.0	6.897588e-01	-5.606349e-02	0.0	-1.367138e-03	6.233161e-03	0.0	7.467650e-01	-4.997311e-02	0.0	5.838090e-01	8.122916e-02	0.0	9.927651e-01	-3.598793e-03	0.0	9.898616e-01	-4.480982e-03	0.0	5.994275e-01	7.958836e-02	0.0	7.187102e-01	-5.322760e-02	0.0	-1.548094e-03	7.305687e-04	0.0	9.864673e-01	-5.441292e-03	0.0	9.825916e-01	-6.470515e-03	0.0	-1.358171e-03	-6.336027e-03	0.0	6.449375e-01	-5.947833e-02	0.0	8.244939e-01	-3.842106e-02	0.0	7.997632e-01	-4.246746e-02	0.0	3.482204e-01	8.660152e-02	0.0	8.478910e-01	-3.434813e-02	0.0	2.468390e-01	7.862192e-02	0.0	8.698983e-01	-3.032503e-02	0.0	1.001408e-02	2.079824e-02	0.0	8.904116e-01	-2.642047e-02	0.0	7.722818e-02	-4.682321e-02	0.0	9.093595e-01	-2.267674e-02	0.0	-1.865007e-03	-3.138557e-03	0.0	9.422484e-01	-1.580904e-02	0.0	9.266631e-01	-1.912583e-02	0.0	1.806769e-02	-2.637803e-02	0.0	4.256782e-01	-6.623083e-02	0.0	8.590773e-01	-3.232303e-02	0.0	9.560748e-01	-1.276843e-02	0.0	9.782290e-01	-7.589010e-03	0.0	9.680882e-01	-1.002215e-02	0.0	1.584746e-01	-5.900398e-02	0.0	9.000881e-01	-2.452666e-02	0.0	7.604299e-01	-4.820093e-02	0.0	9.971132e-01	-2.058079e-03	0.0	5.988429e-01	-6.197001e-02	0.0	4.413590e-01	-6.604490e-02	0.0	5.361230e-01	-6.418097e-02	0.0	4.728882e-01	-6.557080e-02	0.0	5.045102e-01	-6.495629e-02	0.0	4.886866e-01	-6.528085e-02	0.0	1.251652e-01	-5.514410e-02	0.0	2.799454e-02	-3.148915e-02	0.0	3.945492e-01	-6.649285e-02	0.0	4.640172e-02	-3.855324e-02	0.0	4.100682e-01	-6.638196e-02	0.0	3.187978e-01	-6.636792e-02	0.0	3.486567e-01	-6.657206e-02	0.0	3.367005e-02	-3.391128e-02	0.0	2.896281e-01	-6.592628e-02	0.0	9.346743e-01	-1.743395e-02	0.0	1.470184e-01	-5.780948e-02	0.0	1.948400e-01	-6.200962e-02	0.0	8.600599e-02	-4.867547e-02	0.0	1.048018e-01	-5.210645e-02	0.0	5.676108e-01	-6.321237e-02	0.0	1.702734e-01	-6.010386e-02	0.0	6.143295e-01	-6.122907e-02	0.0	8.803501e-01	-2.835590e-02	0.0	2.280418e-02	-2.897635e-02	0.0	9.951875e-01	-2.803889e-03	0.0	6.796488e-03	-1.820110e-02	0.0	1.798544e-02	2.626178e-02	0.0	9.182203e-01	-2.087471e-02	0.0	9.49388
[...]
POINT_DATA 5233

SCALARS Conservative_1 float 1
LOOKUP_TABLE default
1.618879e-02	7.459455e-03	5.899319e-03	4.759006e-03	4.032491e-03	3.486883e-03	3.060969e-03	2.722576e-03	2.452861e-03	2.237261e-03	2.065844e-03	1.931013e-03	1.826605e-03	1.747691e-03	1.690048e-03	1.648797e-03	1.622223e-03	1.602127e-03	1.588548e-03	1.581871e-03	1.587349e-03	1.599794e-03	1.621579e-03	1.654863e-03	1.696289e-03	1.749254e-03	1.807441e-03	1.873675e-03	1.940994e-03	2.008584e-03	2.073763e-03	2.128795e-03	2.177109e-03	2.207250e-03	2.226418e-03	2.225925e-03	2.213506e-03	2.182937e-03	2.142500e-03	2.087108e-03	2.026481e-03	1.956024e-03	1.884731e-03	1.808661e-03	1.735423e-03	1.661520e-03	1.592764e-03	1.526520e-03	1.466226e-03	1.410585e-03	1.360913e-03	1.316239e-03	1.276521e-03	1.242779e-03	1.212417e-03	1.187725e-03	1.165219e-03	1.146887e-03	1.129401e-03	1.114720e-03	1.099568e-03	1.085589e-03	1.069643e-03	1.053751e-03	1.034464e-03	1.013880e-03	9.886233e-04	9.605644e-04	9.270501e-04	8.891319e-04	8.452905e-04	7.951465e-04	7.386907e-04	6.744551e-04	6.029158e-04	5.229196e-04	4.335348e-04	3.350843e-04	2.259169e-04	1.060049e-04	-2.632250e-05	-1.713996e-04	-3.306537e-04	-5.050649e-04	-6.965495e-04	-9.057430e-04	-1.135330e-03	-1.385693e-03	-1.658621e-03	-1.953499e-03	-2.268353e-03	-2.589564e-03	-2.917867e-03	-3.248933e-03	-3.384238e-03	-3.152558e-03	-2.876046e-03	-2.661091e-03	-2.257547e-03	-1.860561e-03	-1.517338e-03	-6.426518e-04	4.044549e-04	5.119998e-04	1.521324e-03	5.309488e-03	9.205733e-03	1.031082e-02	9.358419e-03	8.106918e-03	7.106279e-03	6.237538e-03	5.432343e-03	4.710378e-03	4.077447e-03	3.537481e-03	3.074591e-03	2.674585e-03	2.333063e-03	2.033020e-03	1.770877e-03	1.533900e-03	1.312635e-03	1.106843e-03	9.194574e-04	7.506055e-04	5.993924e-04	4.591494e-04	3.300948e-04	2.084373e-04	9.833839e-05	-1.406475e-06	-8.968009e-05	-1.675842e-04	-2.397058e-04	-3.067007e-04	-3.692870e-04	-4.106872e-04	-4.208842e-04	-3.821717e-04	-2.902428e-04	-9.940799e-05	2.025324e-04	5.124006e-04	6.875555e-04	6.999896e-04	6.245451e-04	5.326994e-04	4.433420e-04	3.477621e-04	2.446082e-04	1.291199e-04	1.160851e-05	-1.114718e-04	-2.404222e-04	-3.697654e-04	-5.074670e-04	-6.423655e-04	-7.785999e-04	-9.154740e-04	-1.048237e-03	-1.182941e-03	-1.311069e-03	-1.440675e-03	-1.562382e-03	-1.684994e-03	-1.799382e-03	-1.914143e-03	-2.020673e-03	-2.127720e-03	-2.227203e-03	-2.328027e-03	-2.421005e-03	-2.515930e-03	-2.607594e-03	-2.697543e-03	-2.787627e-03	-2.876931e-03	-2.972389e-03	-3.070721e-03	-3.181214e-03	-3.294155e-03	-3.410112e-03	-3.529115e-03	-3.662596e-03	-3.810034e-03	-3.977376e-03	-4.164909e-03	-4.377879e-03	-4.619703e-03	-4.897146e-03	-5.217058e-03	-5.590078e-03	-6.028364e-03	-6.550880e-03	-7.182344e-03	-8.110408e-03	-8.954958e-03	-1.574727e-02	-3.524309e-04	-1.060659e-05	-1.037997e-05	-1.000793e-05	-9.611616e-06	-9.066825e-06	-8.401750e-06	-7.536996e-06	-6.450423e-06	-5.073785e-06	-3.580764e-06	-1.641451e-06	7.544274e-07	3.504565e-06	6.219047e-06	8.186416e-06	9.685430e-06	1.045992e-05	1.059525e-05	1.029858e-05	9.944448e-06	9.764778e-06	8.266458e-06	9.607676e-06	1.783727e-05	1.188432e-05	1.039022e-05	1.281711e-05	1.100894e-05	1.581406e-06	1.633353e-06	1.534826e-06	8.944024e-07	5.083825e-07	-1.135619e-07	-9.088447e-07	-1.856856e-06	-2.563096e-06	-3.686560e-06	-4.369288e-06	-5.632885e-06	-7.132431e-06	-8.233429e-06	-9.136427e-06	-9.801867e-06	-1.028704e-05	-1.062313e-05	-1.082393e-05	-1.087880e-05	-1.079870e-05	-1.077508e-05	-5.440678e-04	1.867725e-03	9.328586e-04	-1.007943e-03	1.010192e-03	1.223401e-02	8.409310e-03	1.881995e-03	1.942205e-03	-5.971120e-04	1.948316e-03	-1.234583e-05	3.981131e-03	3.385260e-03	-1.503183e-04	1.970783e-03	-1.777507e-03	2.945369e-03	2.611053e-03	-2.717304e-03	1.817718e-03	1.686012e-03	1.787080e-03	3.324939e-04	1.599607e-03	4.543451e-04	1.542649e-03	8.237838e-03	1.525228e-03	-2.329870e-04	1.547247e-03	-2.458723e-03	1.641181e-03	1.580089e-03	-2.144555e-03	1.078868e-03	1.566264e-03	1.765434e-03	2.350682e-03	1.986245e-03	5.559440e-04	1.532367e-03	1.921208e-03	6.110251e-03	1.633164e-03	1.108949e-03	1.380620e-03	1.181153e-03	1.272235e-03	1.224652e-03	3.319926e-04	-1.602211e-03	1.029929e-03	-9.157264e-04	1.053239e-03	9.448921e-04	9.757111e-04	-1.355113e-03	9.121855e-04	1.605309e-03	4.896698e-04	7.144174e-04	-9.754735e-05	1.381228e-04	1.503168e-03	6.154949e-04	1.698513e-03	1.528248e-03	-1.865742e-03	4.827120e-03	-2.990840e-03	7.774604e-03	1.563277e-03	1.693415e-03	2.146319e-03	-7.234316e-05	1.639033e-03	8.489249e-04	1.440953e-03	1.966594e-03	1.837298e-03	2.400051e-04	7.907686e-04	1.568592e-03	1.911063e-03	-7.221024e-04	-3.212426e-03	-2.429758e-03	9.918073e-04	6.679914e-04	1.704827e-02	8.221880e-04	2.601126e-05	9.286144e-04	8.730226e-04	1.142706e-03	1.963682e-03	-1.402270e-03	-2.920933e-03	3.745593e-04	-2.067653e-03	6.269066e-03	3.909886e-03	4.978892e-03	1.825660e-03	9.365323e-04	-8.462363e-03	4.901074e-04	7.711405e-04	-4.476959e-03	-4.040307e-03	-2.856103e-03	6.897171e-04	8.958730e-04	7.161599e-04	-3.317810e-03	-3.088704e-03	2.775556e-03	-4.747029e-03	-3.860676e-03	-3.561173e-03	2.247767e-03	3.475463e-03	2.875216e-04	3.928590e-04	1.033121e-03	2.310908e-04	8.416747e-04	8.835467e-04	1.304595e-03	1.637465e-03	-4.370293e-04	8.009599e-04	6.061522e-04	-7.249205e-04	1.239378e-04	-1.541683e-03	-1.281451e-03	-2.017672e-03	-1.787084e-03	-2.443936e-03	-2.236613e-03	-2.969913e-03	-2.647072e-03	-3.702795e-03	-3.205572e-03	-4.243677e-03	-2.546126e-03	-2.750085e-03	-2.127229e-03	-2.340346e-03	-1.665168e-03	-1.903011e-03	-1.145002e-03	-1.412160e-03	-5.805173e-04	-8.662425e-04	2.523067e-04	-2.932584e-04	6.976815e-04	5.253630e-04	1.162325e-03	9.124802e-04	4.409926e-03	1.463217e-03	8.596370e-03	5.607472e-03	7.553613e-04	1.498683e-03	1.861145e-03	1.735358e-03	9.598260e-04	1.324628e-03	-1.432413e-04	6.958989e-03	5.354437e-03	2.494507e-03	3.099948e-03	3.363359e-04	2.027938e-03	-5.064899e-03	-5.444113e-03	2.482202e-04	-5.912112e-03	-6.509035e-03	2.500736e-04	4.978486e-04	-3.435908e-03	-1.818069e-02	-1.043316e-02	-1.352346e-02	1.759475e-03	-1.126496e-03	-7.310455e-03	5.947278e-04	-3.172667e-03	-2.709682e-03	-3.815846e-04	4.150630e-04	8.933382e-04	3.200802e-03	-8.031061e-04	-1.396494e-03	7.550534e-04	1.706844e-03	1.454175e-03	-2.749553e-03	3.266076e-04	1.684602e-03	1.652917e-03	3.172843e-03	8.083861e-04	1.458002e-03	1.512955e-03	-1.691957e-04	-2.720819e-03	6.227548e-04	-2.277486e-03	1.754128e-03	3.759224e-04	1.723765e-03	1.610703e-03	9.785986e-04	-2.945690e-04	8.780122e-04	1.427942e-03	1.618922e-03	5.036442e-03	6.612405e-03	-5.668324e-04	-2.261496e-03	2.309273e-03	-7.135769e-04	1.576413e-03	-2.586441e-03	-5.661089e-03	9.632120e-04	8.173497e-04	-3.686264e-03	-2.694635e-03	-6.225355e-03	-3.856502e-03	-4.842375e-03	1.037624e-03	8.745639e-04	1.104704e-03	2.494692e-03	1.649489e-03	5.841849e-04	6.897576e-03	1.835309e-03	4.243456e-03	-4.274359e-03	-6.951466e-03	-2.802547e-03	4.368118e-04	-7.183106e-03	-9.077412e-03	-7.952693e-03	1.886554e-03	-5.047930e-04	-2.967746e-03	-2.246659e-03	-1.965141e-03	-2.027039e-03	4.361024e-03	-5.820295e-04	6.599782e-03	4.416681e-03	1.166946e-03	1.233220e-03	2.768230e-03	1.428807e-03	1.800048e-04	3.700517e-03	-2.533158e-03	9.486137e-04	1.223034e-03	1.481302e-03	8.777641e-04	1.439084e-03	1.425030e-03	-4.321349e-04	1.437976e-03	1.478069e-03	1.594133e-03	-1.546264e-03	1.662800e-03	1.871772e-03	2.458701e-03	2.295107e-04	1.704086e-03	1.683048e-03	5.418224e-03	1.011464e-03	1.048031e-03	1.089582e-03	-1.781690e-03	8.984436e-04	9.230229e-04	8.239762e-04	-1.116815e-03	1.505227e-03	1.542886e-03	3.064848e-04	-5.452194e-05	1.288431e-03	1.455315e-03	2.022489e-03	2.213606e-03	1.725770e-03	1.722098e-03	4.923668e-05	1.446181e-04	1.342523e-03	1.400840e-03	-9.245702e-04	-7.458884e-04	-2.520922e-03	8.412982e-04	8.583492e-04	4.923722e-04	5.410750e-04	6.557232e-04	6.857926e-04	7.743492e-04	7.911145e-04	7.114359e-04	-1.770103e-03	-3.063335e-03	4.677651e-03	-5.208337e-03	7.097020e-04	9.175731e-04	9.998867e-04	1.066125e-03	-4.533774e-03	-4.051367e-03	-3.155234e-03	1.108941e-03	1.135684e-03	1.270300e-03	-3.034214e-03	-3.533765e-03	3.504104e-03	3.851637e-03	9.756603e-04	9.234678e-04	1.699742e-03	1.981498e-03	2.138681e-03	-1.797549e-03	-1.283750e-03	-1.148167e-03	-1.677293e-03	-2.150720e-03	-2.916219e-03	-2.480055e-03	-2.370705e-03	-2.034129e-03	-1.919955e-03	-1.548694e-03	-1.420437e-03	-1.004812e-03	-8.625822e-04	-4.147130e-04	-2.654957e-04	4.612255e-04	5.900365e-04	-1.139809e-04	3.538700e-05	1.180131e-03	1.266838e-03	1.360480e-03	1.464742e-03	7.062414e-03	5.148774e-03	5.638009e-03	1.583848e-03	1.546067e-03	1.134009e-03	1.183137e-03	-1.663147e-04	6.126200e-03	2.702276e-03	2.935357e-03	8.405973e-04	8.493671e-04	1.235659e-03	1.107022e-03	-3.399074e-03	-3.272815e-03	1.511952e-03	1.561648e-03	-1.323837e-03	-2.932977e-03	7.352593e-04	-2.549995e-03	7.601084e-04	6.258456e-04	1.448432e-03	1.055976e-03	1.346351e-03	-5.539082e-03	-5.131196e-03	-3.801496e-03	1.524118e-04	-5.979100e-03	-1.127539e-02	-1.050560e-02	4.790327e-03	-1.545359e-03	-1.911109e-03	-1.880675e-03	-2.399512e-04	1.377141e-03	3.053086e-03	5.912354e-04	8.936346e-03	-2.725056e-03	1.501089e-03	-2.870451e-03	1.509221e-03	-2.128867e-03	1.306232e-03	-2.542094e-03	6.833912e-04	1.316242e-03	1.481485e-03	3.446674e-03	-2.344794e-03	-4.486434e-03	9.662475e-04	-3.467419e-03	-3.173375e-04	-6.569679e-03	1.076214e-03	1.364806e-03	1.501694e-03	2.070021e-03	3.600367e-03	-1.130761e-02	-2.721448e-03	-1.015259e-03	5.803835e-03	-1.472107e-03	1.705842e-03	-3.542984e-04	-2.086026e-03	2.630311e-04	8.643496e-04	-1.693243e-03	4.255714e-03	-2.068924e-03	-1.591445e-03	-4.709798e-04	-4.785709e-03	-3.625816e-03	-2.611012e-03	-2.503421e-03	1.404596e-03	1.338158e-03	1.538545e-03	2.756549e-03	1.424096e-03	1.457501e-03	4.577744e-04	5.523969e-03	2.191366e-03	-4.225129e-03	-7.406741e-03	2.036305e-03	-6.275439e-04	-2.865317e-03	-2.349854e-03	-1.484484e-03	7.700877e-03	8.893886e-03	1.831602e-03	2.702611e-03	4.491954e-04	8.348409e-04	1.384347e-03	1.352125e-03	1.330560e-03	1.301873e-03	1.303961e-03	-6.166180e-04	-4.800596e-04	1.309481e-03	1.325277e-03	1.525897e-03	1.604900e-03	2.416272e-03	1.490031e-03	1.475819e-03	3.991442e-03	8.986020e-04	9.320426e-04	7.813979e-04	8.076355e-04	-1.287438e-03	1.415789e-03	1.463364e-03	1.279492e-04	1.986102e-04	1.103740e-03	1.150794e-03	1.986949e-03	2.180505e-03	1.514545e-03	1.509164e-03	-1.348798e-04	-3.854651e-05	4.963253e-05	1.200985e-03	1.248998e-03	-1.101654e-03	-9.269976e-04	-7.643043e-04	7.002043e-04	7.201436e-04	7.381495e-04	3.201058e-04	3.712341e-04	4.181215e-04	4.954313e-04	5.261628e-04	6.467379e-04	6.641598e-04	5.565406e-04	4.476834e-03	1.165172e-03	1.236268e-03	-4.000411e-03	1.283463e-03	1.313970e-03	1.335112e-03	1.473978e-03	-2.949090e-03	3.870378e-03	4.166688e-03	1.410347e-03	1.473941e-03	2.319041e-03	2.453007e-03	2.598635e-03	-1.059405e-03	-2.833354e-03	-2.717710e-03	-2.398515e-03	-2.288174e-03	-2.180121e-03	-1.947686e-03	-1.836868e-03	-1.717315e-03	-1.465766e-03	-1.334273e-03	-1.199104e-03	-9.169499e-04	-7.710699e-04	-6.218371e-04	-1.639511e-04	7.244398e-04	8.495042e-04	-9.159812e-06	1.440176e-04	2.949700e-04	1.610089e-03	1.686107e-03	1.767146e-03	1.858620e-03	1.957759e-03	4.795681e-03	5.112712e-03	1.426520e-03	1.401524e-03	1.374191e-03	9.693832e-04	1.013541e-03	5.414819e-03	5.669626e-03	2.933722e-03	3.130938e-03	3.353938e-03	1.350504e-03	1.587496e-03	1.652984e-03	1.605215e-03	-3.326385e-03	-3.193692e-03	-3.071540e-03	1.298249e-03	1.343175e-03	1.387154e-03	5.815291e-04	6.061101e-04	-2.535157e-03	-3.041691e-04	-5.933736e-03	-4.337331e-03	9.671389e-04	-1.858113e-03	5.057194e-03	1.241333e-03	1.279628e-03	-1.414371e-03	-5.207347e-03	1.234850e-03	-2.663327e-03	4.413405e-03	-2.482723e-03	-3.534702e-03	-5.519987e-03	-1.032260e-03	-1.363587e-04	-5.174910e-04	-5.514248e-03	2.463359e-03	1.297854e-03	1.610419e-04	-1.785505e-03	6.625781e-04	-4.077812e-04	7.402715e-04	5.151643e-04	-4.596535e-03	7.749208e-04	-3.379260e-03	-3.238567e-03	-1.412459e-03	2.480701e-03	1.727226e-03	2.463438e-03	3.917620e-03	1.192761e-03	-7.689726e-03	-4.886509e-03	3.292839e-03	1.732149e-03	-1.974174e-03	1.333654e-03	-2.605735e-03	1.327264e-03	1.353431e-03	-2.158695e-03	2.716902e-03	-2.333045e-03	-1.898157e-03	1.139265e-03	1.799105e-03	-1.473675e-03	3.425241e-03	-2.829965e-04	-2.424744e-03	1.883220e-03	1.730299e-03	1.711080e-03	1.289464e-03	1.296846e-03	-4.101528e-03	1.863552e-03	3.702199e-04	-2.687580e-03	-2.409825e-03	-1.593438e-03	1.616012e-03	2.234652e-03	6.264695e-04	1.216778e-03	1.199285e-03	1.185382e-03	1.186706e-03	-6.443338e-04	-5.213188e-04	1.189031e-03	1.200452e-03	1.221118e-03	1.439786e-03	1.518986e-03	1.335697e-03	1.302730e-03	2.958206e-03	7.739557e-04	8.086200e-04	6.836471e-04	7.134237e-04	1.323649e-03	1.374543e-03	3.475478e-05	9.657485e-05	9.977833e-04	1.872099e-03	2.039866e-03	1.344692e-03	1.330224e-03	-2.073384e-04	-1.213624e-04	-3.665552e-05	1.053724e-03	1.084032e-03	-1.242881e-03	-1.077574e-03	-9.195770e-04	-7.762908e-04	5.752838e-04	5.967559e-04	6.161734e-04	6.391972e-04	2.110814e-04	2.628450e-04	3.042793e-04	3.457944e-04	3.790807e-04	5.565716e-04	5.348593e-04	4.129518e-04	1.322154e-03	-3.892234e-03	-3.704726e-03	1.378128e-03	1.421111e-03	1.450414e-03	1.483040e-03	1.540018e-03	4.128610e-03	4.326319e-03	1.784403e-03	1.850294e-03	2.603443e-03	2.724837e-03	2.856017e-03	2.996405e-03	-2.741322e-03	-2.631940e-03	-2.524980e-03	-2.320580e-03	-2.216778e-03	-2.108397e-03	-2.002226e-03	-1.775662e-03	-1.656674e-03	-1.550449e-03	-1.293517e-03	-1.149654e-03	-1.023012e-03	-8.731160e-04	-7.390427e-04	-5.836985e-04	-4.418988e-04	1.019458e-03	8.921396e-04	2.230415e-05	1.715844e-04	3.297030e-04	4.819476e-04	1.928109e-03	2.003531e-03	2.084871e-03	2.171033e-03	2.263663e-03	2.368480e-03	4.507686e-03	4.671718e-03	1.271080e-03	1.246877e-03	1.232150e-03	8.381675e-04	8.863753e-04	9.153400e-04	4.808580e-03	4.879397e-03	4.807617e-03	3.149999e-03	3.319449e-03	3.511804e-03	3.713321e-03	1.637460e-03	1.785296e-03	1.899793e-03	1.934175e-03	-2.857577e-03	-3.103932e-03	-2.983092e-03	1.141084e-03	1.167719e-03	1.222318e-03	1.241433e-03	4.408152e-04	4.690290e-04	4.913099e-04	-1.978638e-03	-5.328288e-03	1.494966e-03	-8.361596e-03	-2.130763e-03	1.199910e-03	-3.541742e-04	-2.262585e-03	-3.936112e-03	-2.448126e-03	-1.492207e-03	7.409393e-05	2.798728e-03	2.715522e-03	-4.057693e-04	-1.813914e-03	-2.107715e-03	-2.199467e-03	-2.104999e-03	-2.522626e-03	2.703252e-03	2.110654e-03	1.592819e-03	2.136532e-03	1.192719e-03	1.171987e-03	5.814926e-04	-4.803258e-03	-2.683044e-03	-3.012904e-03	9.480939e-04	1.169381e-03	-6.231672e-05	-1.190002e-03	1.329881e-03	8.576961e-04	2.121763e-03	-4.582429e-03	-4.487024e-04	-8.700642e-03	-4.134639e-03	-2.254114e-03	5.409612e-03	6.009623e-03	1.166195e-03	-1.342307e-03	-2.503260e-03	3.530759e-03	-2.360555e-03	-3.277381e-03	-9.806537e-04	-3.139891e-03	-3.172273e-04	-1.822919e-03	4.564122e-04	4.243287e-04	-4.342734e-03	7.562054e-04	-3.143461e-03	1.968574e-03	1.176106e-03	-1.429040e-03	2.036296e-03	1.990090e-03	1.937835e-03	1.137712e-03	1.579579e-03	4.417040e-04	-2.417249e-03	-1.656754e-03	1.104599e-03	1.106828e-03	1.092189e-03	1.098744e-03	-5.531413e-04	-6.631849e-04	1.089864e-03	1.103859e-03	1.110737e-03	1.125516e-03	1.339806e-03	1.411314e-03	1.189553e-03	2.279617e-03	6.725445e-04	6.966889e-04	6.147409e-04	6.328996e-04	1.231274e-03	1.280000e-03	-4.342915e-05	2.774539e-05	1.705701e-03	1.832093e-03	1.190795e-03	-2.655228e-04	-1.749584e-04	-1.077668e-04	9.336852e-04	-1.192851e-03	-1.044643e-03	-9.073473e-04	-7.814541e-04	4.682809e-04	4.989981e-04	5.111295e-04	5.432337e-04	5.600865e-04	1.362208e-04	1.715359e-04	2.250249e-04	2.518302e-04	2.975111e-04	-3.751633e-03	-3.580882e-03	-3.424097e-03	1.407524e-03	1.456124e-03	1.499912e-03	1.531248e-03	1.567825e-03	4.059696e-03	4.154746e-03	1.971805e-03	2.013343e-03	2.896324e-03	3.020281e-03	3.162694e-03	-2.561900e-03	-2.469776e-03	-2.361984e-03	-2.274688e-03	-2.161485e-03	-2.066177e-03	-1.949980e-03	-1.794300e-03	-1.612098e-03	-1.438791e-03	-9.222991e-04	-6.456732e-04	-3.578447e-04	2.370500e-04	5.289752e-04	2.098295e-03	2.175384e-03	2.274033e-03	2.355449e-03	2.449943e-03	2.559987e-03	2.669249e-03	4.214569e-03	4.252990e-03	1.139273e-03	1.136779e-03	1.120778e-03	7.274729e-04	7.853854e-04	4.258413e-03	4.185809e-03	3.975950e-03	3.304692e-03	3.453442e-03	3.617580e-03	3.778044e-03	3.923562e-03	1.620796e-03	1.724425e-03	1.847200e-03	2.016812e-03	-2.894294e-03	-2.784764e-03	1.009636e-03	1.079814e-03	3.194087e-04	3.599154e-04	3.760574e-04	4.108501e-04	6.162875e-03	-8.758120e-03	-2.052112e-03	-2.070090e-03	1.738210e-03	1.408337e-03	-4.065411e-03	-1.353399e-03	-3.152688e-03	2.607124e-03	1.566260e-03	-2.396393e-03	-1.393720e-03	-1.933801e-03	2.102867e-03	-5.141364e-03	1.286389e-03	-9.017763e-04	-1.806084e-03	1.338138e-03	7.138366e-04	-3.885361e-03	3.674986e-04	1.098789e-03	1.061844e-03	9.116852e-04	-3.896125e-04	3.677648e-05	-2.298332e-03	5.309218e-04	-5.712840e-04	-4.782798e-04	3.038631e-03	-3.571310e-03	-2.558114e-03	-1.725232e-03	2.144094e-03	1.274304e-03	-8.237970e-03	-3.722160e-03	-2.166495e-03	-2.402057e-03	1.664525e-03	1.054523e-03	1.260724e-03	1.409010e-03	-4.268067e-03	-1.782003e-03	-5.295200e-03	-2.331856e-03	5.463465e-03	-1.266382e-03	-2.193454e-03	-2.133889e-03	8.694795e-04	-1.528204e-03	-3.032056e-03	-2.918657e-03	1.069494e-03	2.179416e-03	2.117068e-03	1.040603e-03	4.179906e-04	-3.221133e-04	-1.673296e-03	1.011137e-03	1.008934e-03	-6.738157e-04	1.017749e-03	1.025157e-03	1.218178e-03	1.783583e-03	5.850571e-04	1.129570e-03	1.170349e-03	-6.794829e-05	1.482616e-03	1.051434e-03	1.046924e-03	-2.628605e-04	-1.663171e-04	7.794568e-04	-1.134335e-03	-1.000818e-03	-8.850464e-04	-7.787728e-04	4.125389e-04	4.595587e-04	4.882952e-04	1.247237e-04	1.999366e-04	-3.423918e-03	-3.284385e-03	1.507965e-03	1.581707e-03	3.919052e-03	2.140861e-03	3.218789e-03	-1.415902e-03	-2.361013e-03	-2.162383e-03	-1.957376e-03	-1.760303e-03	-1.586144e-03	-1.207941e-03	-9.579146e-04	-6.954102e-04	-4.261009e-04	-1.476466e-04	1.364690e-04	4.175178e-04	6.671567e-04	2.288931e-03	2.474764e-03	2.645434e-03	2.753534e-03	2.878847e-03	3.878516e-03	3.823781e-03	1.034487e-03	1.031820e-03	1.013336e-03	6.205342e-04	6.563173e-04	3.739015e-03	3.572878e-03	3.275568e-03	2.819125e-03	3.363024e-03	3.498488e-03	3.634374e-03	3.757813e-03	3.843130e-03	3.945357e-03	1.688459e-03	1.854746e-03	-2.826481e-03	-2.703199e-03	8.472873e-04	9.680682e-04	1.011646e-03	2.647199e-04	3.191541e-04	-4.366317e-03	4.800956e-03	4.773770e-03	-5.695072e-03	-9.067298e-04	-3.869347e-03	-3.496309e-03	2.205589e-03	-1.928149e-03	-1.643224e-03	2.971621e-03	1.813592e-03	3.391276e-04	-1.628149e-03	-2.335192e-03	-3.116307e-03	9.381902e-04	1.860431e-03	-4.861956e-03	9.249565e-04	-1.405380e-03	3.660223e-03	1.016388e-03	-1.852591e-03	4.318875e-04	9.932236e-04	8.412273e-04	6.674191e-04	1.147193e-03	1.190496e-03	-1.296373e-03	-1.185606e-03	-6.547947e-03	-3.503485e-03	-3.650497e-03	-2.898897e-03	2.228184e-03	7.384141e-04	9.170715e-04	-6.711843e-04	-7.489267e-03	-7.568425e-03	-2.205745e-03	1.106070e-03	-3.004115e-03	1.801904e-05	1.244010e-03	-1.261949e-03	-1.748265e-03	6.097655e-04	-2.224979e-03	-5.865089e-04	-5.018452e-04	-3.367516e-03	-1.998919e-03	1.071424e-03	1.298996e-03	9.336619e-04	-2.331588e-03	3.403422e-03	-7.664330e-04	-2.038470e-03	-1.959549e-03	1.124053e-03	-1.527700e-03	-2.800750e-03	9.335136e-04	2.116036e-03	5.192136e-04	-2.826123e-04	-8.175148e-04	9.040867e-04	9.117079e-04	9.435808e-04	9.723889e-04	1.419657e-03	4.790614e-04	1.014892e-03	1.040480e-03	3.961017e-04	9.188951e-04	9.131813e-04	9.367814e-04	-4.049782e-04	-2.975047e-04	-2.106126e-04	-1.062984e-03	3.034091e-04	3.525996e-04	-1.141425e-04	-1.922923e-05	8.855009e-04	-3.238926e-03	1.298333e-03	1.430075e-03	3.186602e-03	-2.323584e-03	-2.125516e-03	-1.394349e-03	-1.922902e-03	-1.730527e-03	-1.556705e-03	-1.218497e-03	-1.007017e-03	-7.686639e-04	-5.194857e-04	-2.629718e-04	2.004482e-06	2.686899e-04	2.226308e-03	2.282713e-03	2.443085e-03	2.636996e-03	2.825182e-03	3.019776e-03	3.500488e-03	3.377638e-03	9.295734e-04	9.052038e-04	5.270572e-04	5.640768e-04	3.237962e-03	3.025207e-03	2.691279e-03	2.242632e-03	1.679232e-03	3.326903e-03	3.447829e-03	3.557028e-