# vtk DataFile Version 3.0
vtk output
ASCII
DATASET UNSTRUCTURED_GRID
POINTS 5233 float
9.997500e-01	-3.632909e-05	0.0	9.990000e-01	-1.452618e-04	0.0	9.977600e-01	-3.252008e-04	0.0	9.960200e-01	-5.774943e-04	0.0	9.937800e-01	-9.022942e-04	0.0	9.910500e-01	-1.298763e-03	0.0	9.878400e-01	-1.766726e-03	0.0	9.841300e-01	-2.311194e-03	0.0	9.799500e-01	-2.930640e-03	0.0	9.752800e-01	-3.631444e-03	0.0	9.701500e-01	-4.412625e-03	0.0	9.645400e-01	-5.280292e-03	0.0	9.584700e-01	-6.233365e-03	0.0	9.519400e-01	-7.272227e-03	0.0	9.449600e-01	-8.393908e-03	0.0	9.375400e-01	-9.593773e-03	0.0	9.296900e-01	-1.086609e-02	0.0	9.214000e-01	-1.220804e-02	0.0	9.127000e-01	-1.361074e-02	0.0	9.035800e-01	-1.507272e-02	0.0	8.940600e-01	-1.658877e-02	0.0	8.841500e-01	-1.815610e-02	0.0	8.738500e-01	-1.977361e-02	0.0	8.631800e-01	-2.143627e-02	0.0	8.521600e-01	-2.313752e-02	0.0	8.407700e-01	-2.487471e-02	0.0	8.290500e-01	-2.663345e-02	0.0	8.170100e-01	-2.840162e-02	0.0	8.046400e-01	-3.016792e-02	0.0	7.919700e-01	-3.191393e-02	0.0	7.790100e-01	-3.362378e-02	0.0	7.657800e-01	-3.528073e-02	0.0	7.522800e-01	-3.687177e-02	0.0	7.385200e-01	-3.838440e-02	0.0	7.245300e-01	-3.980643e-02	0.0	7.103200e-01	-4.113073e-02	0.0	6.958900e-01	-4.235375e-02	0.0	6.812700e-01	-4.347212e-02	0.0	6.664700e-01	-4.448693e-02	0.0	6.515000e-01	-4.540154e-02	0.0	6.363800e-01	-4.622067e-02	0.0	6.211300e-01	-4.695082e-02	0.0	6.057600e-01	-4.760016e-02	0.0	5.902800e-01	-4.817747e-02	0.0	5.747100e-01	-4.869148e-02	0.0	5.590600e-01	-4.915119e-02	0.0	5.433600e-01	-4.956464e-02	0.0	5.276100e-01	-4.993996e-02	0.0	5.118400e-01	-5.028359e-02	0.0	4.960500e-01	-5.060149e-02	0.0	4.802700e-01	-5.089775e-02	0.0	4.645100e-01	-5.117554e-02	0.0	4.487800e-01	-5.143670e-02	0.0	4.331100e-01	-5.168146e-02	0.0	4.175000e-01	-5.190932e-02	0.0	4.019700e-01	-5.211839e-02	0.0	3.865400e-01	-5.230586e-02	0.0	3.712300e-01	-5.246816e-02	0.0	3.560400e-01	-5.260130e-02	0.0	3.409900e-01	-5.270061e-02	0.0	3.261100e-01	-5.276113e-02	0.0	3.114000e-01	-5.277790e-02	0.0	2.968700e-01	-5.274582e-02	0.0	2.825500e-01	-5.265996e-02	0.0	2.684500e-01	-5.251559e-02	0.0	2.545700e-01	-5.230801e-02	0.0	2.409400e-01	-5.203324e-02	0.0	2.275700e-01	-5.168749e-02	0.0	2.144700e-01	-5.126729e-02	0.0	2.016600e-01	-5.076993e-02	0.0	1.891400e-01	-5.019238e-02	0.0	1.769300e-01	-4.953284e-02	0.0	1.650400e-01	-4.878952e-02	0.0	1.534900e-01	-4.796177e-02	0.0	1.422900e-01	-4.704883e-02	0.0	1.314400e-01	-4.604934e-02	0.0	1.209500e-01	-4.496296e-02	0.0	1.108500e-01	-4.379208e-02	0.0	1.011300e-01	-4.253503e-02	0.0	9.181000e-02	-4.119389e-02	0.0	8.290000e-02	-3.976997e-02	0.0	7.440000e-02	-3.826304e-02	0.0	6.633000e-02	-3.667657e-02	0.0	5.869000e-02	-3.501058e-02	0.0	5.149000e-02	-3.326708e-02	0.0	4.474000e-02	-3.144844e-02	0.0	3.844000e-02	-2.955433e-02	0.0	3.260000e-02	-2.758711e-02	0.0	2.723000e-02	-2.554977e-02	0.0	2.232000e-02	-2.343708e-02	0.0	1.790000e-02	-2.126113e-02	0.0	1.395000e-02	-1.901092e-02	0.0	1.049000e-02	-1.669561e-02	0.0	7.520000e-03	-1.431461e-02	0.0	5.040000e-03	-1.186637e-02	0.0	3.050000e-03	-9.347302e-03	0.0	1.560000e-03	-6.769269e-03	0.0	5.600000e-04	-4.108233e-03	0.0	6.000000e-05	-1.363608e-03	0.0	0.000000e+00	0.000000e+00	0.0	6.000000e-05	1.350236e-03	0.0	5.600000e-04	4.050826e-03	0.0	1.560000e-03	6.663226e-03	0.0	3.050000e-03	9.195473e-03	0.0	5.040000e-03	1.167583e-02	0.0	7.520000e-03	1.409653e-02	0.0	1.049000e-02	1.646478e-02	0.0	1.395000e-02	1.878581e-02	0.0	1.790000e-02	2.106403e-02	0.0	2.232000e-02	2.329392e-02	0.0	2.723000e-02	2.549065e-02	0.0	3.260000e-02	2.764558e-02	0.0	3.844000e-02	2.976800e-02	0.0	4.474000e-02	3.185849e-02	0.0	5.149000e-02	3.391797e-02	0.0	5.869000e-02	3.595015e-02	0.0	6.633000e-02	3.795531e-02	0.0	7.440000e-02	3.993367e-02	0.0	8.290000e-02	4.188739e-02	0.0	9.181000e-02	4.381361e-02	0.0	1.011300e-01	4.571359e-02	0.0	1.108500e-01	4.758588e-02	0.0	1.209500e-01	4.942683e-02	0.0	1.314400e-01	5.123782e-02	0.0	1.422900e-01	5.301272e-02	0.0	1.534900e-01	5.474871e-02	0.0	1.650400e-01	5.644398e-02	0.0	1.769300e-01	5.809472e-02	0.0	1.891400e-01	5.969553e-02	0.0	2.016600e-01	6.124223e-02	0.0	2.144700e-01	6.272926e-02	0.0	2.275700e-01	6.415328e-02	0.0	2.409400e-01	6.550849e-02	0.0	2.545700e-01	6.679020e-02	0.0	2.684500e-01	6.799357e-02	0.0	2.825500e-01	6.911218e-02	0.0	2.968700e-01	7.014214e-02	0.0	3.114000e-01	7.107860e-02	0.0	3.261100e-01	7.191555e-02	0.0	3.409900e-01	7.264840e-02	0.0	3.560400e-01	7.327286e-02	0.0	3.712300e-01	7.378330e-02	0.0	3.865400e-01	7.417483e-02	0.0	4.019700e-01	7.444303e-02	0.0	4.175000e-01	7.458295e-02	0.0	4.331100e-01	7.458992e-02	0.0	4.487800e-01	7.445955e-02	0.0	4.645100e-01	7.418745e-02	0.0	4.802700e-01	7.376991e-02	0.0	4.960500e-01	7.320341e-02	0.0	5.118400e-01	7.248482e-02	0.0	5.276100e-01	7.161270e-02	0.0	5.433600e-01	7.058503e-02	0.0	5.590600e-01	6.940265e-02	0.0	5.747100e-01	6.806549e-02	0.0	5.902800e-01	6.657731e-02	0.0	6.057600e-01	6.494175e-02	0.0	6.211300e-01	6.316504e-02	0.0	6.363800e-01	6.125402e-02	0.0	6.515000e-01	5.921698e-02	0.0	6.664700e-01	5.706516e-02	0.0	6.812700e-01	5.481151e-02	0.0	6.958900e-01	5.246892e-02	0.0	7.103200e-01	5.005129e-02	0.0	7.245300e-01	4.757686e-02	0.0	7.385200e-01	4.505941e-02	0.0	7.522800e-01	4.251466e-02	0.0	7.657800e-01	3.996213e-02	0.0	7.790100e-01	3.741749e-02	0.0	7.919700e-01	3.489399e-02	0.0	8.046400e-01	3.240819e-02	0.0	8.170100e-01	2.997405e-02	0.0	8.290500e-01	2.760884e-02	0.0	8.407700e-01	2.532127e-02	0.0	8.521600e-01	2.312328e-02	0.0	8.631800e-01	2.103157e-02	0.0	8.738500e-01	1.905016e-02	0.0	8.841500e-01	1.718895e-02	0.0	8.940600e-01	1.545535e-02	0.0	9.035800e-01	1.385019e-02	0.0	9.127000e-01	1.237271e-02	0.0	9.214000e-01	1.102010e-02	0.0	9.296900e-01	9.781662e-03	0.0	9.375400e-01	8.650401e-03	0.0	9.449600e-01	7.612208e-03	0.0	9.519400e-01	6.656126e-03	0.0	9.584700e-01	5.772587e-03	0.0	9.645400e-01	4.954359e-03	0.0	9.701500e-01	4.195689e-03	0.0	9.752800e-01	3.496291e-03	0.0	9.799500e-01	2.852720e-03	0.0	9.841300e-01	2.270023e-03	0.0	9.878400e-01	1.747228e-03	0.0	9.910500e-01	1.290667e-03	0.0	9.937800e-01	8.994899e-04	0.0	9.960200e-01	5.767420e-04	0.0	9.977600e-01	3.250644e-04	0.0	9.990000e-01	1.452495e-04	0.0	9.997500e-01	3.632890e-05	0.0	1.000000e+00	0.000000e+00	0.0	1.984229e+01	2.506660e+00	0.0	1.937166e+01	4.973800e+00	0.0	1.859553e+01	7.362490e+00	0.0	1.752613e+01	9.635070e+00	0.0	1.618034e+01	1.175571e+01	0.0	1.457937e+01	1.369094e+01	0.0	1.274848e+01	1.541027e+01	0.0	1.071654e+01	1.688656e+01	0.0	8.515590e+00	1.809654e+01	0.0	6.180340e+00	1.902113e+01	0.0	3.747630e+00	1.964575e+01	0.0	1.255810e+00	1.996053e+01	0.0	-1.255810e+00	1.996053e+01	0.0	-3.747630e+00	1.964574e+01	0.0	-6.180340e+00	1.902113e+01	0.0	-8.515590e+00	1.809654e+01	0.0	-1.071654e+01	1.688656e+01	0.0	-1.274848e+01	1.541026e+01	0.0	-1.457937e+01	1.369094e+01	0.0	-1.618034e+01	1.175570e+01	0.0	-1.752613e+01	9.635070e+00	0.0	-1.859553e+01	7.362490e+00	0.0	-1.937166e+01	4.973800e+00	0.0	-1.984229e+01	2.506660e+00	0.0	-2.000000e+01	0.000000e+00	0.0	-1.984229e+01	-2.506670e+00	0.0	-1.937166e+01	-4.973800e+00	0.0	-1.859553e+01	-7.362490e+00	0.0	-1.752613e+01	-9.635080e+00	0.0	-1.618034e+01	-1.175571e+01	0.0	-1.457937e+01	-1.369094e+01	0.0	-1.274848e+01	-1.541027e+01	0.0	-1.071653e+01	-1.688656e+01	0.0	-8.515580e+00	-1.809654e+01	0.0	-6.180340e+00	-1.902113e+01	0.0	-3.747620e+00	-1.964575e+01	0.0	-1.255810e+00	-1.996053e+01	0.0	1.255810e+00	-1.996053e+01	0.0	3.747630e+00	-1.964574e+01	0.0	6.180340e+00	-1.902113e+01	0.0	8.515590e+00	-1.809654e+01	0.0	1.071654e+01	-1.688656e+01	0.0	1.274848e+01	-1.541026e+01	0.0	1.457937e+01	-1.369094e+01	0.0	1.618034e+01	-1.175570e+01	0.0	1.752614e+01	-9.635070e+00	0.0	1.859553e+01	-7.362490e+00	0.0	1.937166e+01	-4.973790e+00	0.0	1.984229e+01	-2.506660e+00	0.0	2.000000e+01	0.000000e+00	0.0	6.093892e-02	-4.285144e-02	0.0	6.600410e-01	-5.844939e-02	0.0	4.255297e-01	8.863687e-02	0.0	6.904536e-01	6.677179e-02	0.0	3.791252e-01	-6.656260e-02	0.0	9.994589e-01	-7.258723e-04	0.0	9.985402e-01	-1.320872e-03	0.0	7.738251e-01	-4.634860e-02	0.0	6.897588e-01	-5.606349e-02	0.0	-1.367138e-03	6.233161e-03	0.0	7.467650e-01	-4.997311e-02	0.0	5.838090e-01	8.122916e-02	0.0	9.927651e-01	-3.598793e-03	0.0	9.898616e-01	-4.480982e-03	0.0	5.994275e-01	7.958836e-02	0.0	7.187102e-01	-5.322760e-02	0.0	-1.548094e-03	7.305687e-04	0.0	9.864673e-01	-5.441292e-03	0.0	9.825916e-01	-6.470515e-03	0.0	-1.358171e-03	-6.336027e-03	0.0	6.449375e-01	-5.947833e-02	0.0	8.244939e-01	-3.842106e-02	0.0	7.997632e-01	-4.246746e-02	0.0	3.482204e-01	8.660152e-02	0.0	8.478910e-01	-3.434813e-02	0.0	2.468390e-01	7.862192e-02	0.0	8.698983e-01	-3.032503e-02	0.0	1.001408e-02	2.079824e-02	0.0	8.904116e-01	-2.642047e-02	0.0	7.722818e-02	-4.682321e-02	0.0	9.093595e-01	-2.267674e-02	0.0	-1.865007e-03	-3.138557e-03	0.0	9.422484e-01	-1.580904e-02	0.0	9.266631e-01	-1.912583e-02	0.0	1.806769e-02	-2.637803e-02	0.0	4.256782e-01	-6.623083e-02	0.0	8.590773e-01	-3.232303e-02	0.0	9.560748e-01	-1.276843e-02	0.0	9.782290e-01	-7.589010e-03	0.0	9.680882e-01	-1.002215e-02	0.0	1.584746e-01	-5.900398e-02	0.0	9.000881e-01	-2.452666e-02	0.0	7.604299e-01	-4.820093e-02	0.0	9.971132e-01	-2.058079e-03	0.0	5.988429e-01	-6.197001e-02	0.0	4.413590e-01	-6.604490e-02	0.0	5.361230e-01	-6.418097e-02	0.0	4.728882e-01	-6.557080e-02	0.0	5.045102e-01	-6.495629e-02	0.0	4.886866e-01	-6.528085e-02	0.0	1.251652e-01	-5.514410e-02	0.0	2.799454e-02	-3.148915e-02	0.0	3.945492e-01	-6.649285e-02	0.0	4.640172e-02	-3.855324e-02	0.0	4.100682e-01	-6.638196e-02	0.0	3.187978e-01	-6.636792e-02	0.0	3.486567e-01	-6.657206e-02	0.0	3.367005e-02	-3.391128e-02	0.0	2.896281e-01	-6.592628e-02	0.0	9.346743e-01	-1.743395e-02	0.0	1.470184e-01	-5.780948e-02	0.0	1.948400e-01	-6.200962e-02	0.0	8.600599e-02	-4.867547e-02	0.0	1.048018e-01	-5.210645e-02	0.0	5.676108e-01	-6.321237e-02	0.0	1.702734e-01	-6.010386e-02	0.0	6.143295e-01	-6.122907e-02	0.0	8.803501e-01	-2.835590e-02	0.0	2.280418e-02	-2.897635e-02	0.0	9.951875e-01	-2.803889e-03	0.0	6.796488e-03	-1.820110e-02	0.0	1.798544e-02	2.626178e-02	0.0	9.182203e-01	-2.087471e-02	0.0	9.49388
[...]
POINT_DATA 5233

SCALARS Conservative_1 float 1
LOOKUP_TABLE default
4.280403e-01	2.167061e-01	1.771502e-01	1.478177e-01	1.286649e-01	1.140172e-01	1.023569e-01	9.289570e-02	8.513566e-02	7.870003e-02	7.331131e-02	6.877151e-02	6.490069e-02	6.159095e-02	5.873366e-02	5.625324e-02	5.408633e-02	5.206198e-02	5.015927e-02	4.842458e-02	4.702355e-02	4.584850e-02	4.488636e-02	4.410687e-02	4.342799e-02	4.291412e-02	4.244809e-02	4.211142e-02	4.177757e-02	4.148991e-02	4.121736e-02	4.086331e-02	4.054354e-02	4.006291e-02	3.958568e-02	3.895458e-02	3.832001e-02	3.754380e-02	3.678503e-02	3.591064e-02	3.507971e-02	3.416568e-02	3.332114e-02	3.242224e-02	3.160900e-02	3.077204e-02	3.001874e-02	2.927442e-02	2.859643e-02	2.795043e-02	2.735998e-02	2.680181e-02	2.627356e-02	2.580418e-02	2.533973e-02	2.494023e-02	2.453627e-02	2.418349e-02	2.381872e-02	2.349534e-02	2.315245e-02	2.284372e-02	2.250449e-02	2.219217e-02	2.184256e-02	2.151082e-02	2.113640e-02	2.077133e-02	2.036365e-02	1.994633e-02	1.949822e-02	1.901726e-02	1.851746e-02	1.797066e-02	1.739771e-02	1.678810e-02	1.612832e-02	1.543534e-02	1.468936e-02	1.390000e-02	1.305304e-02	1.215350e-02	1.119304e-02	1.016905e-02	9.074836e-03	7.909978e-03	6.665412e-03	5.339387e-03	3.936827e-03	2.444538e-03	9.101356e-04	-5.050855e-04	-2.308773e-03	-4.704099e-03	-2.126368e-03	6.161622e-03	8.009981e-03	2.534295e-03	-4.593895e-03	-1.119463e-02	-1.731905e-02	-3.066910e-02	-5.081745e-02	-6.726867e-02	-8.042873e-02	-1.010513e-01	-1.281328e-01	-1.487133e-01	-1.584150e-01	-1.620960e-01	-1.639395e-01	-1.648368e-01	-1.645912e-01	-1.628400e-01	-1.598743e-01	-1.560930e-01	-1.519827e-01	-1.479322e-01	-1.443166e-01	-1.412650e-01	-1.387785e-01	-1.369590e-01	-1.358490e-01	-1.353852e-01	-1.352063e-01	-1.350207e-01	-1.347477e-01	-1.344477e-01	-1.342034e-01	-1.340524e-01	-1.337711e-01	-1.333633e-01	-1.326755e-01	-1.317914e-01	-1.309039e-01	-1.300847e-01	-1.294159e-01	-1.282878e-01	-1.261679e-01	-1.225116e-01	-1.171149e-01	-1.085455e-01	-9.638849e-02	-8.408002e-02	-7.787896e-02	-7.779038e-02	-8.020485e-02	-8.239400e-02	-8.370833e-02	-8.447265e-02	-8.476361e-02	-8.471516e-02	-8.414851e-02	-8.324990e-02	-8.211846e-02	-8.070190e-02	-7.926462e-02	-7.760532e-02	-7.590147e-02	-7.415340e-02	-7.232229e-02	-7.057738e-02	-6.876186e-02	-6.709672e-02	-6.538982e-02	-6.386795e-02	-6.233781e-02	-6.101562e-02	-5.970619e-02	-5.861695e-02	-5.755644e-02	-5.673142e-02	-5.592669e-02	-5.537918e-02	-5.493925e-02	-5.469165e-02	-5.467191e-02	-5.486505e-02	-5.539847e-02	-5.619624e-02	-5.751751e-02	-5.914661e-02	-6.104898e-02	-6.315042e-02	-6.565729e-02	-6.849980e-02	-7.177107e-02	-7.542792e-02	-7.956853e-02	-8.424770e-02	-8.962419e-02	-9.585586e-02	-1.032077e-01	-1.119680e-01	-1.225729e-01	-1.355873e-01	-1.553801e-01	-1.731358e-01	-3.305695e-01	3.712412e-02	-1.114502e-04	-1.221285e-04	-1.321588e-04	-1.407109e-04	-1.511838e-04	-1.591121e-04	-1.679030e-04	-1.708346e-04	-1.648802e-04	-1.632086e-04	-1.689776e-04	-1.706806e-04	-1.733637e-04	-1.654238e-04	-1.468088e-04	-1.380993e-04	-1.195861e-04	-1.062347e-04	-9.153726e-05	-7.237289e-05	-4.575423e-05	-2.969000e-05	2.957894e-05	1.701635e-04	1.228527e-04	1.465995e-04	2.102609e-04	2.182886e-04	1.339941e-04	1.662560e-04	1.939451e-04	2.084182e-04	2.200045e-04	2.220462e-04	2.213672e-04	2.102827e-04	1.763559e-04	1.463012e-04	8.911946e-05	6.577350e-05	5.434045e-05	3.377503e-05	1.303949e-05	-8.441906e-06	-2.844882e-05	-4.610191e-05	-6.129485e-05	-7.588069e-05	-8.868925e-05	-1.007057e-04	9.791292e-03	3.216751e-02	-6.741032e-02	-6.042125e-02	2.153578e-02	3.336118e-01	2.390524e-01	3.730126e-02	3.367351e-02	-3.131570e-02	3.623934e-02	-6.881558e-02	1.267890e-01	1.109302e-01	-6.772703e-02	3.504494e-02	-1.317591e-02	9.894151e-02	8.957691e-02	4.044153e-03	3.140351e-02	3.941816e-02	3.831093e-02	-9.384335e-02	4.078816e-02	-1.092107e-01	4.258857e-02	-1.093553e-01	4.505708e-02	1.149021e-02	4.851048e-02	-1.739885e-03	5.686628e-02	5.240099e-02	1.633443e-03	2.260104e-02	4.161309e-02	6.272892e-02	8.203664e-02	7.072630e-02	1.630629e-02	4.665967e-02	3.681013e-02	1.815602e-01	2.903784e-02	2.301900e-02	2.620809e-02	2.393373e-02	2.500104e-02	2.445512e-02	1.480835e-02	4.326806e-03	2.186279e-02	7.827101e-03	2.223064e-02	2.033342e-02	2.091227e-02	5.570360e-03	1.976723e-02	5.451405e-02	1.584652e-02	1.753883e-02	1.225001e-02	1.361905e-02	2.755892e-02	1.674838e-02	2.982963e-02	4.371444e-02	3.017634e-03	1.488216e-01	-2.935112e-03	-1.332243e-01	5.044930e-02	5.957700e-02	7.585577e-02	-4.517708e-02	4.004235e-02	1.887909e-02	2.687657e-02	3.568091e-02	3.781334e-02	1.423640e-02	1.824276e-02	2.830083e-02	3.295286e-02	8.842137e-03	-3.582214e-03	2.941652e-04	2.120816e-02	1.715415e-02	4.509891e-01	1.857545e-02	1.296133e-02	2.004025e-02	1.919031e-02	2.345655e-02	3.439952e-02	-1.959564e-02	6.327976e-03	-7.120302e-02	-8.067663e-03	-1.404572e-01	-1.380828e-01	-1.421697e-01	-1.170308e-01	-6.707412e-02	-1.641800e-01	-7.152039e-02	-7.059402e-02	-8.127607e-02	-7.282842e-02	-5.358454e-02	-7.119851e-02	-6.851217e-02	-7.629372e-02	-5.942149e-02	-5.611337e-02	-1.272205e-01	-8.651763e-02	-6.935440e-02	-6.366119e-02	-1.210485e-01	-1.347026e-01	-1.053325e-01	-1.079145e-01	-1.135994e-01	-1.020373e-01	-6.965972e-02	-6.920444e-02	-1.146746e-01	-1.158817e-01	-6.538927e-02	-1.125376e-01	-1.112899e-01	-6.289258e-02	-6.973729e-02	-5.608498e-02	-5.811923e-02	-5.311523e-02	-5.440346e-02	-5.197415e-02	-5.230354e-02	-5.470259e-02	-5.230550e-02	-6.632667e-02	-5.771285e-02	-7.676080e-02	-5.205433e-02	-5.281169e-02	-5.261745e-02	-5.204176e-02	-5.517118e-02	-5.368205e-02	-5.921551e-02	-5.703603e-02	-6.413178e-02	-6.161931e-02	-7.057782e-02	-6.660264e-02	-1.120078e-01	-1.103560e-01	-1.141634e-01	-1.130597e-01	-1.407325e-01	-1.151783e-01	-1.253065e-01	-1.420450e-01	1.790534e-02	-6.556298e-02	6.640012e-02	3.882935e-02	2.061041e-02	2.559083e-02	-5.502258e-02	-1.375912e-01	-8.579300e-02	-1.238718e-01	-1.309554e-01	-1.066287e-01	-1.187476e-01	-9.274490e-02	-1.002742e-01	-1.039470e-01	-1.097569e-01	-1.221202e-01	-9.900590e-02	-8.580581e-02	-6.141243e-02	-3.856397e-01	-2.082553e-01	-2.781707e-01	3.059642e-02	6.736634e-03	-1.391221e-01	-7.154417e-02	1.426953e-03	-9.724213e-04	1.067035e-02	1.534662e-02	1.947294e-02	-1.107534e-01	-2.901958e-02	-1.981399e-02	1.707585e-02	2.999875e-02	4.736406e-02	-1.265021e-03	-5.732260e-02	2.931794e-02	3.405275e-02	1.051622e-01	1.783141e-02	3.877453e-02	3.695052e-02	1.133066e-02	3.829927e-03	1.580012e-02	1.105905e-03	6.315196e-02	1.419374e-02	3.074559e-02	2.786549e-02	2.027779e-02	1.071587e-02	1.891876e-02	4.377615e-02	3.471761e-02	-7.396230e-02	-1.117712e-01	-5.293161e-02	-4.850240e-02	-9.929589e-02	-5.214632e-02	-9.350938e-02	-4.993286e-02	-1.042192e-01	-6.991831e-02	-5.917043e-02	-6.555074e-02	-5.076824e-02	-1.158917e-01	-6.874477e-02	-8.776799e-02	-8.765081e-02	-7.542543e-02	-8.890753e-02	-1.015475e-01	2.855436e-02	1.550439e-02	-9.216200e-02	-9.500736e-02	-1.193335e-01	-7.671356e-02	-1.312582e-01	-5.175968e-02	1.453826e-02	-1.246272e-01	-1.773326e-01	-1.528668e-01	-5.597959e-02	-3.841099e-02	-2.891717e-03	-5.767825e-03	-1.001409e-02	2.338796e-03	1.495082e-01	9.313596e-03	1.944748e-01	1.381669e-01	-5.704246e-02	2.315211e-02	9.402904e-02	4.100704e-02	-5.673191e-02	1.193439e-01	-5.163486e-04	1.989382e-02	-5.506913e-02	3.778807e-02	-8.341765e-02	3.981892e-02	4.231651e-02	1.004210e-02	4.546263e-02	4.944314e-02	5.657175e-02	4.666161e-03	5.960558e-02	6.729572e-02	8.526409e-02	1.337111e-02	3.270828e-02	3.341436e-02	1.641006e-01	2.067365e-02	2.109647e-02	2.157641e-02	3.531627e-03	1.921151e-02	1.956326e-02	1.807069e-02	6.734245e-03	5.158315e-02	5.391881e-02	1.379604e-02	1.190570e-02	2.377309e-02	2.569514e-02	7.220477e-02	7.807754e-02	3.138912e-02	3.209936e-02	1.242707e-02	1.292945e-02	2.436488e-02	2.505328e-02	7.659884e-03	8.521726e-03	2.665448e-05	1.835111e-02	1.861391e-02	1.489127e-02	1.520588e-02	1.605933e-02	1.633396e-02	1.733429e-02	1.756582e-02	1.657915e-02	-1.364739e-02	-1.358765e-03	-1.206385e-01	-9.504408e-02	-5.894340e-02	-5.907208e-02	-5.889512e-02	-5.857880e-02	-8.172601e-02	-7.244621e-02	-5.632940e-02	-5.831968e-02	-5.796073e-02	-5.374157e-02	-5.455793e-02	-6.273348e-02	-1.141350e-01	-1.170442e-01	-8.635843e-02	-8.493828e-02	-9.421238e-02	-9.608272e-02	-9.749744e-02	-4.833592e-02	-4.968446e-02	-5.026713e-02	-4.861316e-02	-4.833099e-02	-5.302968e-02	-4.932722e-02	-4.883358e-02	-4.819013e-02	-4.826801e-02	-4.885668e-02	-4.928401e-02	-5.080447e-02	-5.150267e-02	-5.364501e-02	-5.446205e-02	-5.802667e-02	-5.856991e-02	-5.522235e-02	-5.596655e-02	-9.004341e-02	-9.099179e-02	-9.192319e-02	-9.273667e-02	-1.044176e-01	-1.206190e-01	-1.192000e-01	3.543315e-02	3.613476e-02	2.206691e-02	2.261419e-02	-4.536645e-02	-1.163832e-01	-1.041956e-01	-1.073066e-01	-7.908591e-02	-8.152014e-02	-5.607422e-02	-6.259090e-02	-6.033501e-02	-5.818167e-02	2.643075e-02	2.710472e-02	5.736853e-03	3.331511e-03	1.684598e-02	1.191084e-04	1.653330e-02	1.478743e-02	3.130382e-02	1.996212e-02	4.577543e-02	-1.006576e-01	-9.250812e-02	-6.693289e-02	-3.902233e-02	-1.095362e-01	-2.268159e-01	-2.062433e-01	1.495326e-01	6.906273e-03	2.979114e-03	-1.206887e-02	1.030654e-02	4.792791e-02	1.027262e-01	-4.815810e-02	2.528757e-01	-1.426949e-03	2.701284e-02	7.887803e-04	2.770509e-02	1.926961e-03	3.790518e-02	-4.199486e-05	1.549049e-02	3.674495e-02	2.627478e-02	1.136054e-01	8.983045e-04	-7.988709e-02	-4.904981e-02	-6.086022e-02	-4.570494e-02	-1.216679e-01	-4.903846e-02	-6.483975e-02	-4.876167e-02	-7.495378e-02	-9.428215e-02	-2.258486e-01	2.603946e-03	-2.575063e-02	-8.557192e-02	-1.862814e-02	6.250722e-02	9.841777e-03	-8.521635e-03	1.247899e-02	1.783221e-02	3.997854e-03	-6.267770e-02	-4.485496e-02	-4.391446e-02	-4.531233e-02	-8.570161e-02	-6.371429e-02	-4.829312e-02	-4.730748e-02	-5.471532e-02	-6.274255e-02	-6.850446e-02	-8.306906e-02	2.486239e-02	2.558264e-02	1.346922e-02	-7.578265e-02	-7.589609e-02	-7.488405e-02	-1.394326e-01	-4.894036e-02	-3.251668e-02	-1.869133e-03	-4.518081e-03	4.958053e-03	2.257352e-01	2.536016e-01	6.679800e-02	9.288724e-02	-4.767312e-02	1.748246e-02	-4.726427e-02	3.471173e-02	3.565571e-02	3.916359e-02	4.055470e-02	8.740623e-03	9.316180e-03	4.205994e-02	4.384113e-02	5.558032e-02	5.879323e-02	8.467618e-02	2.980035e-02	3.062698e-02	1.284167e-01	1.823966e-02	1.859646e-02	1.680383e-02	1.715129e-02	5.838301e-03	5.025496e-02	5.274249e-02	1.185594e-02	1.217210e-02	2.050650e-02	2.103403e-02	7.178885e-02	7.772070e-02	2.846744e-02	2.917997e-02	1.074148e-02	1.114871e-02	1.153303e-02	2.163313e-02	2.222025e-02	6.662040e-03	7.421098e-03	8.125094e-03	1.570781e-02	1.599093e-02	1.622784e-02	1.273678e-02	1.299521e-02	1.325593e-02	1.372096e-02	1.391256e-02	1.503178e-02	1.523293e-02	1.415724e-02	-9.899752e-02	-4.912033e-02	-4.910073e-02	-7.064182e-02	-4.908070e-02	-4.905852e-02	-4.880786e-02	-4.417449e-02	-5.237313e-02	-9.647216e-02	-9.804908e-02	-6.630079e-02	-6.734316e-02	-7.722063e-02	-7.888102e-02	-8.077298e-02	-4.418891e-02	-5.081502e-02	-4.939187e-02	-4.653645e-02	-4.580842e-02	-4.527615e-02	-4.436110e-02	-4.425268e-02	-4.407776e-02	-4.393531e-02	-4.393335e-02	-4.406172e-02	-4.443231e-02	-4.466497e-02	-4.499284e-02	-4.608560e-02	-4.861144e-02	-4.882518e-02	-4.652011e-02	-4.690490e-02	-4.738226e-02	-6.965226e-02	-7.083236e-02	-7.204357e-02	-7.315542e-02	-7.412762e-02	-9.915517e-02	-9.833744e-02	3.213757e-02	3.295979e-02	3.377083e-02	1.900167e-02	1.951298e-02	-9.620338e-02	-9.218701e-02	-8.563954e-02	-8.853253e-02	-9.152340e-02	-5.941789e-02	-4.052363e-02	-3.937251e-02	-4.281540e-02	-5.839827e-02	-5.615726e-02	-5.421178e-02	2.287098e-02	2.350408e-02	2.419316e-02	1.435677e-02	1.459719e-02	-3.753445e-04	9.260420e-03	-1.065887e-01	-7.593957e-02	1.813118e-02	-1.261138e-02	1.570517e-01	4.409531e-02	4.631986e-02	5.203574e-03	-9.254651e-02	-4.201421e-02	8.418965e-04	-6.180514e-02	5.075208e-05	-6.126975e-02	-9.842544e-02	-2.362402e-02	-4.084482e-02	-2.896537e-02	-8.867107e-02	1.004349e-01	2.951416e-02	1.088250e-02	3.592711e-03	1.454043e-02	8.934384e-03	1.547210e-02	1.281804e-02	-8.083661e-02	-4.178371e-02	-5.854875e-02	-5.615921e-02	-4.027340e-02	-5.961588e-02	-5.006933e-02	8.738578e-02	-7.775072e-02	3.506310e-02	-1.450120e-01	-8.638160e-02	1.116979e-01	6.472058e-02	2.730341e-03	2.426516e-02	-8.496603e-04	2.475697e-02	2.575134e-02	1.827761e-03	9.486456e-02	1.018461e-03	-4.176265e-02	-4.248582e-02	-3.842579e-02	-1.809872e-02	-5.239440e-02	-4.024492e-02	-4.499540e-02	-3.270204e-02	-4.388090e-02	-4.755965e-02	2.287699e-02	2.333922e-02	-7.154348e-02	-4.269214e-02	-3.476820e-02	-2.183634e-04	-3.337524e-03	4.445400e-03	6.070858e-02	8.056612e-02	-4.135576e-02	3.294830e-02	3.389657e-02	3.622230e-02	3.752528e-02	8.125401e-03	8.549091e-03	3.886699e-02	4.042965e-02	4.224633e-02	5.399515e-02	5.714474e-02	2.791511e-02	2.849941e-02	1.021120e-01	1.589054e-02	1.631166e-02	1.477333e-02	1.516548e-02	4.868443e-02	5.116685e-02	1.041070e-02	1.058065e-02	1.843614e-02	6.931822e-02	7.461199e-02	2.632687e-02	2.697590e-02	9.589966e-03	9.846344e-03	1.019346e-02	1.916249e-02	1.951768e-02	5.896699e-03	6.541735e-03	7.149411e-03	7.675564e-03	1.345404e-02	1.371567e-02	1.395068e-02	1.424400e-02	1.102190e-02	1.126931e-02	1.142946e-02	1.165188e-02	1.180870e-02	1.324398e-02	1.300627e-02	1.202408e-02	-4.218055e-02	-6.769637e-02	-6.429689e-02	-4.215755e-02	-4.205709e-02	-4.196578e-02	-4.135904e-02	-3.952252e-02	-7.846092e-02	-7.881664e-02	-5.115228e-02	-5.218842e-02	-6.091066e-02	-6.273954e-02	-6.460648e-02	-6.687143e-02	-4.849909e-02	-4.714800e-02	-4.594758e-02	-4.409019e-02	-4.334437e-02	-4.262021e-02	-4.216827e-02	-4.108777e-02	-4.094441e-02	-4.082445e-02	-4.043749e-02	-4.000616e-02	-4.029988e-02	-3.992938e-02	-4.033880e-02	-4.001637e-02	-4.052951e-02	-4.190466e-02	-4.243013e-02	-4.057877e-02	-4.125484e-02	-4.100300e-02	-4.168367e-02	-5.293289e-02	-5.403100e-02	-5.510104e-02	-5.645894e-02	-5.755812e-02	-5.855319e-02	-7.904208e-02	-7.900827e-02	3.020557e-02	3.100952e-02	3.197509e-02	1.657774e-02	1.721492e-02	1.747868e-02	-7.792869e-02	-7.485934e-02	-6.944261e-02	-6.940448e-02	-7.213940e-02	-7.463122e-02	-7.651200e-02	-3.614926e-02	-3.141175e-02	-2.813372e-02	-2.852926e-02	-5.012680e-02	-5.392831e-02	-5.202600e-02	2.030652e-02	2.070630e-02	2.154858e-02	2.198511e-02	1.219952e-02	1.242255e-02	1.259416e-02	2.694527e-03	-9.336528e-02	5.806221e-02	-1.557070e-01	1.978357e-03	2.358136e-02	8.329018e-03	1.226922e-03	-6.738552e-02	2.411116e-04	4.798532e-03	9.484918e-03	-4.866606e-02	-4.335327e-02	-2.606244e-02	-1.296293e-02	-8.423836e-03	-6.999205e-03	-8.622917e-03	1.612631e-05	9.652399e-02	-2.153194e-02	6.160219e-02	7.971778e-02	4.481531e-02	2.753421e-02	1.289473e-02	-8.294456e-02	-4.694469e-02	-5.175667e-02	-3.745867e-02	-3.739720e-02	-3.666916e-02	-3.732386e-02	-3.705287e-02	1.621923e-02	-1.934902e-02	-7.900234e-02	8.077604e-03	-1.661224e-01	-7.090782e-02	-6.307857e-03	1.710190e-01	1.827653e-01	4.300377e-02	5.356381e-03	-1.286047e-03	-4.996243e-02	4.814973e-04	-5.603106e-02	-2.179402e-02	-3.255785e-02	3.433578e-02	3.428639e-03	1.157198e-02	1.122436e-02	-7.461715e-02	-3.680317e-02	-5.384106e-02	7.435127e-02	2.208750e-02	-1.747842e-02	-2.785160e-02	-3.186161e-02	-3.762253e-02	2.072274e-02	-3.666866e-02	-3.084962e-02	-3.303350e-03	4.128498e-03	3.164444e-02	3.281935e-02	3.380326e-02	3.517686e-02	7.799839e-03	7.517460e-03	3.627490e-02	3.780769e-02	3.911358e-02	4.081437e-02	5.195939e-02	5.486840e-02	2.586481e-02	8.443836e-02	1.403466e-02	1.430213e-02	1.333751e-02	1.350321e-02	4.697097e-02	4.932194e-02	9.100267e-03	9.410333e-03	6.552595e-02	6.980336e-02	2.452464e-02	8.484474e-03	8.842207e-03	9.050448e-03	1.718271e-02	5.864939e-03	6.367949e-03	6.799104e-03	7.202892e-03	1.163575e-02	1.200435e-02	1.208690e-02	1.250593e-02	1.268537e-02	9.771651e-03	9.809398e-03	1.010267e-02	1.013310e-02	1.043230e-02	-6.414094e-02	-6.117558e-02	-5.849679e-02	-3.760705e-02	-3.696462e-02	-3.728198e-02	-3.656227e-02	-3.633635e-02	-6.155223e-02	-6.119012e-02	-3.885533e-02	-4.136840e-02	-5.125956e-02	-5.231205e-02	-5.431127e-02	-4.532307e-02	-4.435005e-02	-4.318619e-02	-4.249891e-02	-4.146997e-02	-4.088817e-02	-4.006471e-02	-3.935632e-02	-3.840088e-02	-3.802625e-02	-3.692336e-02	-3.669650e-02	-3.662351e-02	-3.683158e-02	-3.698728e-02	-4.115248e-02	-4.271824e-02	-4.260622e-02	-4.466315e-02	-4.492444e-02	-4.593846e-02	-4.726295e-02	-6.137233e-02	-6.201986e-02	2.869704e-02	2.980871e-02	3.064322e-02	1.463092e-02	1.534196e-02	-6.199791e-02	-5.989748e-02	-5.562429e-02	-5.660044e-02	-5.890887e-02	-6.077865e-02	-6.165938e-02	-6.168693e-02	-3.416618e-02	-3.106328e-02	-2.632442e-02	-2.078525e-02	-4.991300e-02	-4.836405e-02	1.826882e-02	1.945095e-02	1.047945e-02	1.080592e-02	1.084646e-02	1.117145e-02	1.850812e-01	-1.687604e-01	2.229289e-03	-9.363031e-03	8.269458e-02	5.734890e-02	-6.794338e-02	-1.686381e-02	-5.307493e-02	9.485437e-02	6.354233e-02	-4.042204e-03	5.044068e-03	2.866367e-03	-1.539003e-02	-8.027968e-02	-3.123791e-02	-2.014254e-02	3.449820e-03	5.450174e-02	1.393454e-02	-6.491143e-02	1.013536e-02	4.305202e-02	4.060777e-02	1.684839e-02	7.457065e-03	8.512720e-03	4.646402e-04	1.180180e-02	7.141352e-03	7.343550e-03	-4.380613e-02	-5.977848e-02	-4.455484e-02	-1.351111e-02	-3.572376e-02	5.181205e-02	-1.542307e-01	-6.222786e-02	-7.524516e-03	-1.947536e-03	6.719678e-02	2.198855e-02	-3.301226e-02	-3.345106e-02	-7.147171e-02	-1.142535e-03	-9.194771e-02	-5.289367e-03	1.707491e-01	5.416126e-03	1.409545e-03	1.695573e-03	-3.307550e-02	4.558129e-03	-5.121388e-02	-4.954613e-02	-3.307056e-02	-1.740655e-02	-2.593300e-02	2.070514e-02	-2.714565e-02	-2.347783e-02	4.016542e-03	3.109265e-02	3.343184e-02	6.913795e-03	3.597853e-02	3.794403e-02	4.931766e-02	7.139482e-02	1.244663e-02	4.493562e-02	4.703242e-02	8.220049e-03	6.030343e-02	2.310540e-02	2.458241e-02	7.813107e-03	7.994865e-03	1.479002e-02	5.795260e-03	6.103341e-03	6.469042e-03	6.731330e-03	1.053733e-02	1.103887e-02	1.131026e-02	8.782985e-03	9.078988e-03	-5.738952e-02	-5.515343e-02	-3.324615e-02	-3.227970e-02	-4.717294e-02	-3.196883e-02	-4.577096e-02	-3.554348e-02	-4.223810e-02	-4.034433e-02	-3.870174e-02	-3.726499e-02	-3.627413e-02	-3.474238e-02	-3.402063e-02	-3.351619e-02	-3.318385e-02	-3.298066e-02	-3.290046e-02	-3.287571e-02	-3.286323e-02	-3.433251e-02	-3.596253e-02	-3.683129e-02	-3.902667e-02	-4.023699e-02	-4.715344e-02	-4.829809e-02	2.615966e-02	2.798152e-02	2.930979e-02	1.283051e-02	1.321884e-02	-4.895405e-02	-4.763736e-02	-4.429871e-02	-4.017823e-02	-4.757698e-02	-4.906597e-02	-5.001922e-02	-4.985660e-02	-4.872523e-02	-4.932419e-02	-2.871131e-02	-2.204412e-02	-4.825347e-02	-4.642711e-02	1.577069e-02	1.802397e-02	1.930856e-02	9.416837e-03	9.762514e-03	-7.287434e-02	1.525391e-01	1.508926e-01	-1.003252e-01	5.976830e-03	-6.304227e-02	-4.212859e-02	8.423950e-02	2.658375e-03	4.065526e-03	1.046346e-01	7.306433e-02	-2.369169e-02	-1.366339e-02	-5.014990e-03	-5.121919e-02	2.088388e-02	-1.749192e-02	-8.273980e-02	3.479094e-02	4.854974e-03	-3.804940e-02	-2.649056e-02	3.097146e-03	1.025656e-02	4.096528e-02	1.611231e-02	1.316254e-02	5.007792e-02	5.228678e-02	5.166396e-03	5.441754e-03	-1.144680e-01	-5.700238e-02	-5.924613e-02	-4.812916e-02	-1.184676e-02	-3.020882e-02	1.853461e-02	6.384592e-03	-1.396577e-01	-1.405827e-01	-7.366550e-03	4.794688e-02	-4.961513e-02	4.099752e-02	5.470764e-02	-1.605471e-02	3.633398e-03	1.239200e-02	-1.707702e-03	6.492347e-03	6.583371e-03	-5.490897e-02	-1.036992e-02	4.601147e-02	5.729747e-02	1.976212e-02	-5.408306e-03	1.213255e-01	6.199403e-03	1.731834e-03	2.593345e-03	-3.018085e-02	4.470230e-03	-4.683178e-02	-3.024068e-02	-1.077650e-02	-3.026696e-02	-2.100798e-02	-1.850611e-02	3.002641e-02	3.247190e-02	3.696963e-02	3.926965e-02	6.164787e-02	1.079650e-02	4.253221e-02	4.419540e-02	9.883865e-03	2.504839e-02	2.656728e-02	2.209877e-02	6.650085e-03	6.876289e-03	6.963027e-03	5.671648e-03	8.964815e-03	9.422742e-03	7.116917e-03	7.331631e-03	1.727678e-02	-5.301456e-02	-3.013468e-02	-3.002469e-02	-3.971542e-02	-4.074255e-02	-3.868649e-02	-3.354898e-02	-3.687125e-02	-3.542294e-02	-3.435398e-02	-3.284511e-02	-3.215455e-02	-3.155339e-02	-3.110521e-02	-3.078221e-02	-3.054750e-02	-3.039433e-02	-1.873211e-02	-2.463397e-02	-2.750865e-02	-2.963967e-0