# vtk DataFile Version 3.0
vtk output
ASCII
DATASET UNSTRUCTURED_GRID
POINTS 5233 float
9.997500e-01	-3.632909e-05	0.0	9.990000e-01	-1.452618e-04	0.0	9.977600e-01	-3.252008e-04	0.0	9.960200e-01	-5.774943e-04	0.0	9.937800e-01	-9.022942e-04	0.0	9.910500e-01	-1.298763e-03	0.0	9.878400e-01	-1.766726e-03	0.0	9.841300e-01	-2.311194e-03	0.0	9.799500e-01	-2.930640e-03	0.0	9.752800e-01	-3.631444e-03	0.0	9.701500e-01	-4.412625e-03	0.0	9.645400e-01	-5.280292e-03	0.0	9.584700e-01	-6.233365e-03	0.0	9.519400e-01	-7.272227e-03	0.0	9.449600e-01	-8.393908e-03	0.0	9.375400e-01	-9.593773e-03	0.0	9.296900e-01	-1.086609e-02	0.0	9.214000e-01	-1.220804e-02	0.0	9.127000e-01	-1.361074e-02	0.0	9.035800e-01	-1.507272e-02	0.0	8.940600e-01	-1.658877e-02	0.0	8.841500e-01	-1.815610e-02	0.0	8.738500e-01	-1.977361e-02	0.0	8.631800e-01	-2.143627e-02	0.0	8.521600e-01	-2.313752e-02	0.0	8.407700e-01	-2.487471e-02	0.0	8.290500e-01	-2.663345e-02	0.0	8.170100e-01	-2.840162e-02	0.0	8.046400e-01	-3.016792e-02	0.0	7.919700e-01	-3.191393e-02	0.0	7.790100e-01	-3.362378e-02	0.0	7.657800e-01	-3.528073e-02	0.0	7.522800e-01	-3.687177e-02	0.0	7.385200e-01	-3.838440e-02	0.0	7.245300e-01	-3.980643e-02	0.0	7.103200e-01	-4.113073e-02	0.0	6.958900e-01	-4.235375e-02	0.0	6.812700e-01	-4.347212e-02	0.0	6.664700e-01	-4.448693e-02	0.0	6.515000e-01	-4.540154e-02	0.0	6.363800e-01	-4.622067e-02	0.0	6.211300e-01	-4.695082e-02	0.0	6.057600e-01	-4.760016e-02	0.0	5.902800e-01	-4.817747e-02	0.0	5.747100e-01	-4.869148e-02	0.0	5.590600e-01	-4.915119e-02	0.0	5.433600e-01	-4.956464e-02	0.0	5.276100e-01	-4.993996e-02	0.0	5.118400e-01	-5.028359e-02	0.0	4.960500e-01	-5.060149e-02	0.0	4.802700e-01	-5.089775e-02	0.0	4.645100e-01	-5.117554e-02	0.0	4.487800e-01	-5.143670e-02	0.0	4.331100e-01	-5.168146e-02	0.0	4.175000e-01	-5.190932e-02	0.0	4.019700e-01	-5.211839e-02	0.0	3.865400e-01	-5.230586e-02	0.0	3.712300e-01	-5.246816e-02	0.0	3.560400e-01	-5.260130e-02	0.0	3.409900e-01	-5.270061e-02	0.0	3.261100e-01	-5.276113e-02	0.0	3.114000e-01	-5.277790e-02	0.0	2.968700e-01	-5.274582e-02	0.0	2.825500e-01	-5.265996e-02	0.0	2.684500e-01	-5.251559e-02	0.0	2.545700e-01	-5.230801e-02	0.0	2.409400e-01	-5.203324e-02	0.0	2.275700e-01	-5.168749e-02	0.0	2.144700e-01	-5.126729e-02	0.0	2.016600e-01	-5.076993e-02	0.0	1.891400e-01	-5.019238e-02	0.0	1.769300e-01	-4.953284e-02	0.0	1.650400e-01	-4.878952e-02	0.0	1.534900e-01	-4.796177e-02	0.0	1.422900e-01	-4.704883e-02	0.0	1.314400e-01	-4.604934e-02	0.0	1.209500e-01	-4.496296e-02	0.0	1.108500e-01	-4.379208e-02	0.0	1.011300e-01	-4.253503e-02	0.0	9.181000e-02	-4.119389e-02	0.0	8.290000e-02	-3.976997e-02	0.0	7.440000e-02	-3.826304e-02	0.0	6.633000e-02	-3.667657e-02	0.0	5.869000e-02	-3.501058e-02	0.0	5.149000e-02	-3.326708e-02	0.0	4.474000e-02	-3.144844e-02	0.0	3.844000e-02	-2.955433e-02	0.0	3.260000e-02	-2.758711e-02	0.0	2.723000e-02	-2.554977e-02	0.0	2.232000e-02	-2.343708e-02	0.0	1.790000e-02	-2.126113e-02	0.0	1.395000e-02	-1.901092e-02	0.0	1.049000e-02	-1.669561e-02	0.0	7.520000e-03	-1.431461e-02	0.0	5.040000e-03	-1.186637e-02	0.0	3.050000e-03	-9.347302e-03	0.0	1.560000e-03	-6.769269e-03	0.0	5.600000e-04	-4.108233e-03	0.0	6.000000e-05	-1.363608e-03	0.0	0.000000e+00	0.000000e+00	0.0	6.000000e-05	1.350236e-03	0.0	5.600000e-04	4.050826e-03	0.0	1.560000e-03	6.663226e-03	0.0	3.050000e-03	9.195473e-03	0.0	5.040000e-03	1.167583e-02	0.0	7.520000e-03	1.409653e-02	0.0	1.049000e-02	1.646478e-02	0.0	1.395000e-02	1.878581e-02	0.0	1.790000e-02	2.106403e-02	0.0	2.232000e-02	2.329392e-02	0.0	2.723000e-02	2.549065e-02	0.0	3.260000e-02	2.764558e-02	0.0	3.844000e-02	2.976800e-02	0.0	4.474000e-02	3.185849e-02	0.0	5.149000e-02	3.391797e-02	0.0	5.869000e-02	3.595015e-02	0.0	6.633000e-02	3.795531e-02	0.0	7.440000e-02	3.993367e-02	0.0	8.290000e-02	4.188739e-02	0.0	9.181000e-02	4.381361e-02	0.0	1.011300e-01	4.571359e-02	0.0	1.108500e-01	4.758588e-02	0.0	1.209500e-01	4.942683e-02	0.0	1.314400e-01	5.123782e-02	0.0	1.422900e-01	5.301272e-02	0.0	1.534900e-01	5.474871e-02	0.0	1.650400e-01	5.644398e-02	0.0	1.769300e-01	5.809472e-02	0.0	1.891400e-01	5.969553e-02	0.0	2.016600e-01	6.124223e-02	0.0	2.144700e-01	6.272926e-02	0.0	2.275700e-01	6.415328e-02	0.0	2.409400e-01	6.550849e-02	0.0	2.545700e-01	6.679020e-02	0.0	2.684500e-01	6.799357e-02	0.0	2.825500e-01	6.911218e-02	0.0	2.968700e-01	7.014214e-02	0.0	3.114000e-01	7.107860e-02	0.0	3.261100e-01	7.191555e-02	0.0	3.409900e-01	7.264840e-02	0.0	3.560400e-01	7.327286e-02	0.0	3.712300e-01	7.378330e-02	0.0	3.865400e-01	7.417483e-02	0.0	4.019700e-01	7.444303e-02	0.0	4.175000e-01	7.458295e-02	0.0	4.331100e-01	7.458992e-02	0.0	4.487800e-01	7.445955e-02	0.0	4.645100e-01	7.418745e-02	0.0	4.802700e-01	7.376991e-02	0.0	4.960500e-01	7.320341e-02	0.0	5.118400e-01	7.248482e-02	0.0	5.276100e-01	7.161270e-02	0.0	5.433600e-01	7.058503e-02	0.0	5.590600e-01	6.940265e-02	0.0	5.747100e-01	6.806549e-02	0.0	5.902800e-01	6.657731e-02	0.0	6.057600e-01	6.494175e-02	0.0	6.211300e-01	6.316504e-02	0.0	6.363800e-01	6.125402e-02	0.0	6.515000e-01	5.921698e-02	0.0	6.664700e-01	5.706516e-02	0.0	6.812700e-01	5.481151e-02	0.0	6.958900e-01	5.246892e-02	0.0	7.103200e-01	5.005129e-02	0.0	7.245300e-01	4.757686e-02	0.0	7.385200e-01	4.505941e-02	0.0	7.522800e-01	4.251466e-02	0.0	7.657800e-01	3.996213e-02	0.0	7.790100e-01	3.741749e-02	0.0	7.919700e-01	3.489399e-02	0.0	8.046400e-01	3.240819e-02	0.0	8.170100e-01	2.997405e-02	0.0	8.290500e-01	2.760884e-02	0.0	8.407700e-01	2.532127e-02	0.0	8.521600e-01	2.312328e-02	0.0	8.631800e-01	2.103157e-02	0.0	8.738500e-01	1.905016e-02	0.0	8.841500e-01	1.718895e-02	0.0	8.940600e-01	1.545535e-02	0.0	9.035800e-01	1.385019e-02	0.0	9.127000e-01	1.237271e-02	0.0	9.214000e-01	1.102010e-02	0.0	9.296900e-01	9.781662e-03	0.0	9.375400e-01	8.650401e-03	0.0	9.449600e-01	7.612208e-03	0.0	9.519400e-01	6.656126e-03	0.0	9.584700e-01	5.772587e-03	0.0	9.645400e-01	4.954359e-03	0.0	9.701500e-01	4.195689e-03	0.0	9.752800e-01	3.496291e-03	0.0	9.799500e-01	2.852720e-03	0.0	9.841300e-01	2.270023e-03	0.0	9.878400e-01	1.747228e-03	0.0	9.910500e-01	1.290667e-03	0.0	9.937800e-01	8.994899e-04	0.0	9.960200e-01	5.767420e-04	0.0	9.977600e-01	3.250644e-04	0.0	9.990000e-01	1.452495e-04	0.0	9.997500e-01	3.632890e-05	0.0	1.000000e+00	0.000000e+00	0.0	1.984229e+01	2.506660e+00	0.0	1.937166e+01	4.973800e+00	0.0	1.859553e+01	7.362490e+00	0.0	1.752613e+01	9.635070e+00	0.0	1.618034e+01	1.175571e+01	0.0	1.457937e+01	1.369094e+01	0.0	1.274848e+01	1.541027e+01	0.0	1.071654e+01	1.688656e+01	0.0	8.515590e+00	1.809654e+01	0.0	6.180340e+00	1.902113e+01	0.0	3.747630e+00	1.964575e+01	0.0	1.255810e+00	1.996053e+01	0.0	-1.255810e+00	1.996053e+01	0.0	-3.747630e+00	1.964574e+01	0.0	-6.180340e+00	1.902113e+01	0.0	-8.515590e+00	1.809654e+01	0.0	-1.071654e+01	1.688656e+01	0.0	-1.274848e+01	1.541026e+01	0.0	-1.457937e+01	1.369094e+01	0.0	-1.618034e+01	1.175570e+01	0.0	-1.752613e+01	9.635070e+00	0.0	-1.859553e+01	7.362490e+00	0.0	-1.937166e+01	4.973800e+00	0.0	-1.984229e+01	2.506660e+00	0.0	-2.000000e+01	0.000000e+00	0.0	-1.984229e+01	-2.506670e+00	0.0	-1.937166e+01	-4.973800e+00	0.0	-1.859553e+01	-7.362490e+00	0.0	-1.752613e+01	-9.635080e+00	0.0	-1.618034e+01	-1.175571e+01	0.0	-1.457937e+01	-1.369094e+01	0.0	-1.274848e+01	-1.541027e+01	0.0	-1.071653e+01	-1.688656e+01	0.0	-8.515580e+00	-1.809654e+01	0.0	-6.180340e+00	-1.902113e+01	0.0	-3.747620e+00	-1.964575e+01	0.0	-1.255810e+00	-1.996053e+01	0.0	1.255810e+00	-1.996053e+01	0.0	3.747630e+00	-1.964574e+01	0.0	6.180340e+00	-1.902113e+01	0.0	8.515590e+00	-1.809654e+01	0.0	1.071654e+01	-1.688656e+01	0.0	1.274848e+01	-1.541026e+01	0.0	1.457937e+01	-1.369094e+01	0.0	1.618034e+01	-1.175570e+01	0.0	1.752614e+01	-9.635070e+00	0.0	1.859553e+01	-7.362490e+00	0.0	1.937166e+01	-4.973790e+00	0.0	1.984229e+01	-2.506660e+00	0.0	2.000000e+01	0.000000e+00	0.0	6.093892e-02	-4.285144e-02	0.0	6.600410e-01	-5.844939e-02	0.0	4.255297e-01	8.863687e-02	0.0	6.904536e-01	6.677179e-02	0.0	3.791252e-01	-6.656260e-02	0.0	9.994589e-01	-7.258723e-04	0.0	9.985402e-01	-1.320872e-03	0.0	7.738251e-01	-4.634860e-02	0.0	6.897588e-01	-5.606349e-02	0.0	-1.367138e-03	6.233161e-03	0.0	7.467650e-01	-4.997311e-02	0.0	5.838090e-01	8.122916e-02	0.0	9.927651e-01	-3.598793e-03	0.0	9.898616e-01	-4.480982e-03	0.0	5.994275e-01	7.958836e-02	0.0	7.187102e-01	-5.322760e-02	0.0	-1.548094e-03	7.305687e-04	0.0	9.864673e-01	-5.441292e-03	0.0	9.825916e-01	-6.470515e-03	0.0	-1.358171e-03	-6.336027e-03	0.0	6.449375e-01	-5.947833e-02	0.0	8.244939e-01	-3.842106e-02	0.0	7.997632e-01	-4.246746e-02	0.0	3.482204e-01	8.660152e-02	0.0	8.478910e-01	-3.434813e-02	0.0	2.468390e-01	7.862192e-02	0.0	8.698983e-01	-3.032503e-02	0.0	1.001408e-02	2.079824e-02	0.0	8.904116e-01	-2.642047e-02	0.0	7.722818e-02	-4.682321e-02	0.0	9.093595e-01	-2.267674e-02	0.0	-1.865007e-03	-3.138557e-03	0.0	9.422484e-01	-1.580904e-02	0.0	9.266631e-01	-1.912583e-02	0.0	1.806769e-02	-2.637803e-02	0.0	4.256782e-01	-6.623083e-02	0.0	8.590773e-01	-3.232303e-02	0.0	9.560748e-01	-1.276843e-02	0.0	9.782290e-01	-7.589010e-03	0.0	9.680882e-01	-1.002215e-02	0.0	1.584746e-01	-5.900398e-02	0.0	9.000881e-01	-2.452666e-02	0.0	7.604299e-01	-4.820093e-02	0.0	9.971132e-01	-2.058079e-03	0.0	5.988429e-01	-6.197001e-02	0.0	4.413590e-01	-6.604490e-02	0.0	5.361230e-01	-6.418097e-02	0.0	4.728882e-01	-6.557080e-02	0.0	5.045102e-01	-6.495629e-02	0.0	4.886866e-01	-6.528085e-02	0.0	1.251652e-01	-5.514410e-02	0.0	2.799454e-02	-3.148915e-02	0.0	3.945492e-01	-6.649285e-02	0.0	4.640172e-02	-3.855324e-02	0.0	4.100682e-01	-6.638196e-02	0.0	3.187978e-01	-6.636792e-02	0.0	3.486567e-01	-6.657206e-02	0.0	3.367005e-02	-3.391128e-02	0.0	2.896281e-01	-6.592628e-02	0.0	9.346743e-01	-1.743395e-02	0.0	1.470184e-01	-5.780948e-02	0.0	1.948400e-01	-6.200962e-02	0.0	8.600599e-02	-4.867547e-02	0.0	1.048018e-01	-5.210645e-02	0.0	5.676108e-01	-6.321237e-02	0.0	1.702734e-01	-6.010386e-02	0.0	6.143295e-01	-6.122907e-02	0.0	8.803501e-01	-2.835590e-02	0.0	2.280418e-02	-2.897635e-02	0.0	9.951875e-01	-2.803889e-03	0.0	6.796488e-03	-1.820110e-02	0.0	1.798544e-02	2.626178e-02	0.0	9.182203e-01	-2.087471e-02	0.0	9.49388
[...]
POINT_DATA 5233

SCALARS Conservative_1 float 1
LOOKUP_TABLE default
1.710407e-02	7.918856e-03	6.255151e-03	5.050108e-03	4.281412e-03	3.704902e-03	3.254813e-03	2.897247e-03	2.611917e-03	2.383590e-03	2.201578e-03	2.057957e-03	1.946071e-03	1.860863e-03	1.797798e-03	1.751915e-03	1.721290e-03	1.697498e-03	1.680443e-03	1.670665e-03	1.673613e-03	1.684048e-03	1.704173e-03	1.736203e-03	1.776537e-03	1.828763e-03	1.886317e-03	1.952264e-03	2.019293e-03	2.086711e-03	2.151739e-03	2.206501e-03	2.254602e-03	2.284245e-03	2.302891e-03	2.301566e-03	2.288274e-03	2.256572e-03	2.215000e-03	2.158266e-03	2.096351e-03	2.024446e-03	1.951809e-03	1.874280e-03	1.799752e-03	1.724548e-03	1.654644e-03	1.587287e-03	1.525997e-03	1.469421e-03	1.418953e-03	1.373547e-03	1.333176e-03	1.298905e-03	1.268018e-03	1.242919e-03	1.220001e-03	1.201371e-03	1.183570e-03	1.168660e-03	1.153254e-03	1.139093e-03	1.122920e-03	1.106829e-03	1.087295e-03	1.066497e-03	1.040960e-03	1.012655e-03	9.788014e-04	9.405184e-04	8.962627e-04	8.456533e-04	7.886864e-04	7.238563e-04	6.516716e-04	5.709637e-04	4.807773e-04	3.814721e-04	2.713422e-04	1.503851e-04	1.690431e-05	-1.294192e-04	-2.900360e-04	-4.659399e-04	-6.590494e-04	-8.700196e-04	-1.101547e-03	-1.354036e-03	-1.629300e-03	-1.926765e-03	-2.244444e-03	-2.568527e-03	-2.900216e-03	-3.236753e-03	-3.371715e-03	-3.127540e-03	-2.846657e-03	-2.644725e-03	-2.261293e-03	-1.882048e-03	-1.556260e-03	-7.178134e-04	2.942078e-04	3.507532e-04	1.230627e-03	4.914427e-03	8.841666e-03	1.003610e-02	9.129209e-03	7.879073e-03	6.871073e-03	5.994838e-03	5.180796e-03	4.449601e-03	3.808848e-03	3.262258e-03	2.795941e-03	2.393647e-03	2.051325e-03	1.753168e-03	1.490290e-03	1.251893e-03	1.026825e-03	8.157989e-04	6.232931e-04	4.498370e-04	2.945306e-04	1.506671e-04	1.708888e-05	-1.099860e-04	-2.272495e-04	-3.358794e-04	-4.320467e-04	-5.163647e-04	-5.909231e-04	-6.584286e-04	-7.230318e-04	-7.733821e-04	-8.018025e-04	-7.859232e-04	-7.271714e-04	-5.872205e-04	-3.241610e-04	3.178677e-05	3.328012e-04	4.490442e-04	4.107013e-04	3.164047e-04	2.220561e-04	1.266832e-04	2.744709e-05	-8.416163e-05	-1.980581e-04	-3.172571e-04	-4.418186e-04	-5.662540e-04	-6.991005e-04	-8.288598e-04	-9.598863e-04	-1.091568e-03	-1.219038e-03	-1.348738e-03	-1.471719e-03	-1.596514e-03	-1.713327e-03	-1.831531e-03	-1.941513e-03	-2.052358e-03	-2.154996e-03	-2.258666e-03	-2.354855e-03	-2.452925e-03	-2.543188e-03	-2.635969e-03	-2.725732e-03	-2.814203e-03	-2.903341e-03	-2.992120e-03	-3.087750e-03	-3.186660e-03	-3.298777e-03	-3.413850e-03	-3.532463e-03	-3.654336e-03	-3.791326e-03	-3.942646e-03	-4.114439e-03	-4.306733e-03	-4.524935e-03	-4.772365e-03	-5.056012e-03	-5.382711e-03	-5.763393e-03	-6.210164e-03	-6.742221e-03	-7.383107e-03	-8.326147e-03	-9.158920e-03	-1.612298e-02	-1.491010e-04	-1.131635e-05	-1.112100e-05	-1.077443e-05	-1.039937e-05	-9.879960e-06	-9.228204e-06	-8.372735e-06	-7.271237e-06	-5.835732e-06	-4.300553e-06	-2.332429e-06	1.181408e-07	2.932916e-06	5.748040e-06	7.839508e-06	9.407949e-06	1.026801e-05	1.045178e-05	1.019620e-05	9.903164e-06	9.825405e-06	8.342457e-06	9.934453e-06	1.881445e-05	1.239378e-05	1.098871e-05	1.380845e-05	1.200471e-05	2.049322e-06	2.225000e-06	2.233093e-06	1.631676e-06	1.277885e-06	6.456444e-07	-1.733254e-07	-1.196083e-06	-2.049381e-06	-3.317931e-06	-4.222203e-06	-5.607093e-06	-7.199453e-06	-8.401081e-06	-9.400402e-06	-1.015302e-05	-1.071632e-05	-1.111698e-05	-1.137305e-05	-1.147656e-05	-1.143674e-05	-1.145288e-05	-5.062682e-04	1.931978e-03	6.999321e-04	-1.153507e-03	1.059414e-03	1.291296e-02	8.885921e-03	1.953197e-03	2.008707e-03	-6.698739e-04	2.018294e-03	-1.889293e-04	4.224392e-03	3.596180e-03	-3.221901e-04	2.039246e-03	-1.802904e-03	3.132059e-03	2.779002e-03	-2.696599e-03	1.880790e-03	1.759804e-03	1.859464e-03	-3.636570e-05	1.675400e-03	1.575773e-04	1.621355e-03	7.972848e-03	1.608141e-03	-1.928227e-04	1.636250e-03	-2.453287e-03	1.745547e-03	1.676134e-03	-2.120065e-03	1.129082e-03	1.643362e-03	1.880895e-03	2.503673e-03	2.117108e-03	6.017761e-04	1.618087e-03	1.991868e-03	6.466773e-03	1.692464e-03	1.159625e-03	1.435579e-03	1.232936e-03	1.325443e-03	1.277120e-03	3.762794e-04	-1.572942e-03	1.079420e-03	-8.808370e-04	1.103084e-03	9.933583e-04	1.024499e-03	-1.323775e-03	9.603686e-04	1.705275e-03	5.350574e-04	7.612918e-04	-5.637564e-05	1.810199e-04	1.560151e-03	6.617365e-04	1.759087e-03	1.608856e-03	-1.838741e-03	5.115782e-03	-2.975484e-03	7.594847e-03	1.655767e-03	1.802893e-03	2.287166e-03	-1.632064e-04	1.713704e-03	8.966473e-04	1.496909e-03	2.035901e-03	1.909104e-03	2.836383e-04	8.381367e-04	1.626730e-03	1.976510e-03	-6.856889e-04	-3.200445e-03	-2.407923e-03	1.040783e-03	7.145681e-04	1.794510e-02	8.697572e-04	6.809660e-05	9.769234e-04	9.209125e-04	1.193895e-03	2.031254e-03	-1.446985e-03	-2.895507e-03	1.836067e-04	-2.079936e-03	6.075249e-03	3.679856e-03	4.766501e-03	1.582226e-03	6.690797e-04	-8.703510e-03	2.942202e-04	5.615111e-04	-4.626088e-03	-4.178680e-03	-2.968766e-03	4.838759e-04	6.762877e-04	3.041030e-04	-3.437823e-03	-3.204387e-03	2.534679e-03	-4.902486e-03	-3.994378e-03	-3.687023e-03	2.007315e-03	3.239609e-03	-1.545712e-05	9.205109e-05	7.702049e-04	-8.457060e-05	6.281417e-04	5.407639e-04	1.048670e-03	1.390248e-03	-5.997841e-04	5.302386e-04	3.230763e-04	-8.788052e-04	-5.732280e-05	-1.672617e-03	-1.419297e-03	-2.137626e-03	-1.912030e-03	-2.557253e-03	-2.352712e-03	-3.083863e-03	-2.759054e-03	-3.832364e-03	-3.323338e-03	-4.387130e-03	-2.658592e-03	-2.862141e-03	-2.245028e-03	-2.454835e-03	-1.792927e-03	-2.025277e-03	-1.286567e-03	-1.546361e-03	-7.387443e-04	-1.015830e-03	6.620581e-05	-4.605819e-04	4.214171e-04	2.349266e-04	9.027377e-04	6.459839e-04	4.187839e-03	1.211528e-03	8.398140e-03	5.405064e-03	8.025044e-04	1.229181e-03	1.983646e-03	1.808376e-03	1.008431e-03	1.378685e-03	-2.935622e-04	6.773142e-03	5.031699e-03	2.253723e-03	2.860429e-03	3.396509e-05	1.786796e-03	-5.227671e-03	-5.615441e-03	-5.798722e-05	-6.094030e-03	-6.704531e-03	-8.521977e-05	8.915296e-05	-3.558683e-03	-1.871154e-02	-1.072293e-02	-1.388484e-02	1.821266e-03	-1.093295e-03	-7.524491e-03	3.937084e-04	-3.155298e-03	-2.690445e-03	-3.425414e-04	4.599350e-04	9.413638e-04	3.000331e-03	-8.664671e-04	-1.439646e-03	7.983192e-04	1.766762e-03	1.541263e-03	-2.731759e-03	1.691302e-04	1.743523e-03	1.718297e-03	3.371599e-03	8.519536e-04	1.530252e-03	1.582364e-03	-1.302978e-04	-2.700705e-03	6.655930e-04	-2.254797e-03	1.870747e-03	4.177673e-04	1.784771e-03	1.667421e-03	1.024121e-03	-2.564305e-04	9.222109e-04	1.508632e-03	1.685196e-03	4.793224e-03	6.465875e-03	-7.006252e-04	-2.368573e-03	2.105285e-03	-8.439529e-04	1.356842e-03	-2.693376e-03	-5.837721e-03	6.466475e-04	6.375868e-04	-3.813497e-03	-2.802312e-03	-6.416589e-03	-3.988078e-03	-4.998587e-03	7.920232e-04	5.831741e-04	8.636401e-04	2.291866e-03	1.707267e-03	6.268679e-04	6.706405e-03	1.622726e-03	4.059364e-03	-4.416502e-03	-7.161738e-03	-2.911237e-03	4.789081e-04	-7.344803e-03	-9.346167e-03	-8.191156e-03	1.655239e-03	-5.892649e-04	-2.953631e-03	-2.251411e-03	-1.981802e-03	-2.001986e-03	4.668641e-03	-5.457454e-04	6.976754e-03	4.681148e-03	9.788098e-04	1.282608e-03	2.944980e-03	1.504734e-03	2.689995e-05	3.927356e-03	-2.523188e-03	9.937052e-04	1.037741e-03	1.551975e-03	6.221982e-04	1.513024e-03	1.503191e-03	-3.948661e-04	1.521654e-03	1.568929e-03	1.698253e-03	-1.517109e-03	1.772655e-03	1.996346e-03	2.618200e-03	2.706278e-04	1.767715e-03	1.747618e-03	5.733985e-03	1.057457e-03	1.094546e-03	1.136730e-03	-1.754494e-03	9.428745e-04	9.677968e-04	8.676328e-04	-1.084319e-03	1.600019e-03	1.642019e-03	3.479943e-04	-1.494705e-05	1.338739e-03	1.508594e-03	2.156546e-03	2.359081e-03	1.787674e-03	1.784979e-03	8.938921e-05	1.853071e-04	1.393722e-03	1.453111e-03	-8.906675e-04	-7.107212e-04	-2.500555e-03	8.851212e-04	9.023157e-04	5.347217e-04	5.836015e-04	6.986526e-04	7.288306e-04	8.177232e-04	8.345563e-04	7.545365e-04	-1.795610e-03	-3.049010e-03	4.501857e-03	-5.373621e-03	5.359745e-04	7.318182e-04	8.066971e-04	8.640436e-04	-4.682338e-03	-4.187921e-03	-3.269813e-03	8.985514e-04	9.264218e-04	1.049379e-03	-3.146393e-03	-3.657073e-03	3.307176e-03	3.660465e-03	7.263381e-04	6.711533e-04	1.483657e-03	1.772324e-03	1.932420e-03	-1.908708e-03	-1.402828e-03	-1.269901e-03	-1.790246e-03	-2.258522e-03	-3.026450e-03	-2.586770e-03	-2.477418e-03	-2.142699e-03	-2.029829e-03	-1.663381e-03	-1.537342e-03	-1.129163e-03	-9.899841e-04	-5.518817e-04	-4.064446e-04	2.986133e-04	4.220392e-04	-2.587589e-04	-1.133921e-04	9.439730e-04	1.035609e-03	1.133462e-03	1.241609e-03	6.909817e-03	4.981800e-03	5.479213e-03	1.651113e-03	1.614285e-03	1.181829e-03	1.231742e-03	-3.138641e-04	5.974329e-03	2.500095e-03	2.733405e-03	5.688506e-04	5.886303e-04	9.394294e-04	7.788184e-04	-3.519106e-03	-3.389843e-03	1.566408e-03	1.617163e-03	-1.292914e-03	-2.912906e-03	7.784686e-04	-2.537986e-03	7.999332e-04	6.647315e-04	1.508769e-03	1.099884e-03	1.430635e-03	-5.708840e-03	-5.290700e-03	-3.927932e-03	1.669905e-05	-6.159743e-03	-1.161190e-02	-1.082061e-02	5.077312e-03	-1.501068e-03	-1.885605e-03	-1.900937e-03	-2.035243e-04	1.465357e-03	3.247003e-03	4.489703e-04	9.428782e-03	-2.708482e-03	1.555598e-03	-2.853458e-03	1.564736e-03	-2.105318e-03	1.376661e-03	-2.522708e-03	7.225369e-04	1.384754e-03	1.534930e-03	3.662262e-03	-2.323369e-03	-4.629915e-03	8.067625e-04	-3.585554e-03	-4.374924e-04	-6.765419e-03	9.099063e-04	1.151196e-03	1.228744e-03	1.890245e-03	3.442419e-03	-1.164097e-02	-2.703594e-03	-1.073163e-03	5.680859e-03	-1.510546e-03	1.821452e-03	-3.183748e-04	-2.097585e-03	3.012868e-04	9.054750e-04	-1.665928e-03	4.077289e-03	-2.168517e-03	-1.693626e-03	-5.883289e-04	-4.936635e-03	-3.747886e-03	-2.712589e-03	-2.603954e-03	1.141602e-03	1.111997e-03	1.337396e-03	2.588793e-03	1.475452e-03	1.509937e-03	4.963779e-04	5.379269e-03	2.015247e-03	-4.362093e-03	-7.625876e-03	1.854323e-03	-7.122185e-04	-2.850566e-03	-2.349734e-03	-1.455531e-03	8.133684e-03	9.389528e-03	1.955458e-03	2.877183e-03	3.118367e-04	8.755692e-04	1.230812e-03	1.417428e-03	1.397313e-03	1.374426e-03	1.378903e-03	-5.820413e-04	-4.447581e-04	1.387072e-03	1.406062e-03	1.628365e-03	1.713447e-03	2.574766e-03	1.548359e-03	1.535269e-03	4.236529e-03	9.402274e-04	9.740553e-04	8.214106e-04	8.480216e-04	-1.257063e-03	1.508296e-03	1.560504e-03	1.657921e-04	2.366670e-04	1.148419e-03	1.196250e-03	2.120398e-03	2.325427e-03	1.571169e-03	1.566722e-03	-9.800665e-05	-1.281948e-06	8.724166e-05	1.247338e-03	1.296264e-03	-1.070012e-03	-8.942388e-04	-7.305455e-04	7.394379e-04	7.595770e-04	7.777231e-04	3.584715e-04	4.097103e-04	4.566924e-04	5.341305e-04	5.648601e-04	6.857242e-04	7.031786e-04	5.953063e-04	4.338295e-03	9.908073e-04	1.052269e-03	-4.131808e-03	1.089569e-03	1.115646e-03	1.150788e-03	1.348558e-03	-3.055680e-03	3.718738e-03	4.021831e-03	1.203751e-03	1.271005e-03	2.145826e-03	2.281991e-03	2.429506e-03	-1.167653e-03	-2.937972e-03	-2.820484e-03	-2.498475e-03	-2.387613e-03	-2.279498e-03	-2.047269e-03	-1.937412e-03	-1.818658e-03	-1.569274e-03	-1.439110e-03	-1.305629e-03	-1.027277e-03	-8.835099e-04	-7.366952e-04	-2.870285e-04	5.767941e-04	6.964381e-04	-1.354831e-04	1.435821e-05	1.614572e-04	1.410757e-03	1.489729e-03	1.574505e-03	1.670196e-03	1.773786e-03	4.662841e-03	4.985216e-03	1.488065e-03	1.464224e-03	1.438065e-03	1.011941e-03	1.056818e-03	5.291992e-03	5.550062e-03	2.767132e-03	2.965894e-03	3.191627e-03	1.107157e-03	1.453458e-03	1.455624e-03	1.349902e-03	-3.441174e-03	-3.305385e-03	-3.180640e-03	1.346526e-03	1.392448e-03	1.437498e-03	6.203141e-04	6.449818e-04	-2.523914e-03	-2.702069e-04	-6.106930e-03	-4.471934e-03	1.007701e-03	-1.879376e-03	5.359803e-03	1.322510e-03	1.364884e-03	-1.385720e-03	-5.362778e-03	1.078618e-03	-2.647489e-03	4.298420e-03	-2.464041e-03	-3.650103e-03	-5.682394e-03	-1.089659e-03	-2.469247e-04	-5.994968e-04	-5.640174e-03	2.665074e-03	1.354718e-03	1.960048e-04	-1.759603e-03	6.987601e-04	-3.741110e-04	7.773294e-04	5.503494e-04	-4.737348e-03	6.433673e-04	-3.490973e-03	-3.347069e-03	-1.506605e-03	2.334478e-03	1.544469e-03	2.627694e-03	3.802407e-03	1.258021e-03	-7.914463e-03	-5.034193e-03	3.504972e-03	1.852166e-03	-1.949834e-03	1.383247e-03	-2.588910e-03	1.377402e-03	1.405204e-03	-2.136129e-03	2.895814e-03	-2.312234e-03	-1.990781e-03	9.893700e-04	1.564362e-03	-1.512113e-03	3.289579e-03	-3.900447e-04	-2.518888e-03	1.653899e-03	1.508520e-03	1.511093e-03	1.337078e-03	1.344958e-03	-4.230470e-03	1.722083e-03	2.534175e-04	-2.670636e-03	-2.405437e-03	-1.566050e-03	1.728344e-03	2.385459e-03	5.006671e-04	1.278645e-03	1.262637e-03	1.252577e-03	1.256139e-03	-6.115316e-04	-4.880451e-04	1.260799e-03	1.275017e-03	1.298939e-03	1.539351e-03	1.624531e-03	1.390328e-03	1.358008e-03	3.151491e-03	8.115295e-04	8.467170e-04	7.199841e-04	7.501811e-04	1.413276e-03	1.468804e-03	6.951268e-05	1.313434e-04	1.038655e-03	2.001007e-03	2.179039e-03	1.397122e-03	1.383438e-03	-1.731088e-04	-8.697143e-05	-1.959406e-06	1.095766e-03	1.126474e-03	-1.213147e-03	-1.046884e-03	-8.880240e-04	-7.440352e-04	6.106952e-04	6.323244e-04	6.518699e-04	6.751393e-04	2.459939e-04	2.978543e-04	3.392530e-04	3.808317e-04	4.140918e-04	5.919064e-04	5.700776e-04	4.480151e-04	1.155863e-03	-4.016177e-03	-3.824162e-03	1.202959e-03	1.238855e-03	1.269919e-03	1.318522e-03	1.403103e-03	4.020139e-03	4.222483e-03	1.612319e-03	1.682446e-03	2.460875e-03	2.584248e-03	2.717341e-03	2.859529e-03	-2.839510e-03	-2.728491e-03	-2.620086e-03	-2.413822e-03	-2.309472e-03	-2.200584e-03	-2.094592e-03	-1.867796e-03	-1.749884e-03	-1.644623e-03	-1.389503e-03	-1.246028e-03	-1.121623e-03	-9.723647e-04	-8.409406e-04	-6.864942e-04	-5.477423e-04	8.777361e-04	7.546756e-04	-8.983253e-05	5.534708e-05	2.113532e-04	3.588309e-04	1.761351e-03	1.837283e-03	1.921036e-03	2.010396e-03	2.108000e-03	2.217911e-03	4.406342e-03	4.571707e-03	1.328826e-03	1.305745e-03	1.292511e-03	8.765079e-04	9.256830e-04	9.548856e-04	4.709769e-03	4.781374e-03	4.706158e-03	3.014991e-03	3.187058e-03	3.383448e-03	3.591078e-03	1.542411e-03	1.702445e-03	1.771658e-03	1.744130e-03	-2.957930e-03	-3.209376e-03	-3.086024e-03	1.184819e-03	1.211952e-03	1.267946e-03	1.287586e-03	4.758733e-04	5.041438e-04	5.264154e-04	-1.955072e-03	-5.482854e-03	1.602319e-03	-8.595933e-03	-2.108644e-03	1.247266e-03	-3.224196e-04	-2.242225e-03	-4.056288e-03	-2.429576e-03	-1.464909e-03	1.062449e-04	2.678720e-03	2.609919e-03	-4.815222e-04	-1.837004e-03	-2.118231e-03	-2.206059e-03	-2.115291e-03	-2.506209e-03	2.885170e-03	1.926731e-03	1.706948e-03	2.285622e-03	1.275106e-03	1.224917e-03	6.144869e-04	-4.943640e-03	-2.776420e-03	-3.112425e-03	8.216150e-04	1.032046e-03	-1.632325e-04	-1.278620e-03	1.180821e-03	8.945615e-04	1.974607e-03	-4.717670e-03	-4.171325e-04	-8.952822e-03	-4.259392e-03	-2.257995e-03	5.739747e-03	6.364229e-03	1.245282e-03	-1.314115e-03	-2.492873e-03	3.437711e-03	-2.341786e-03	-3.382553e-03	-1.036570e-03	-3.185428e-03	-2.485513e-04	-1.797978e-03	4.889217e-04	4.565105e-04	-4.472255e-03	6.384150e-04	-3.245754e-03	2.107268e-03	1.221282e-03	-1.468205e-03	1.823214e-03	1.789247e-03	1.754793e-03	1.180963e-03	1.469246e-03	3.437929e-04	-2.412207e-03	-1.630583e-03	1.163766e-03	1.167953e-03	1.154908e-03	1.163843e-03	-5.218058e-04	-6.321170e-04	1.156822e-03	1.173556e-03	1.182724e-03	1.200572e-03	1.435544e-03	1.512554e-03	1.240064e-03	2.437723e-03	7.068495e-04	7.311776e-04	6.483199e-04	6.664612e-04	1.317637e-03	1.370786e-03	-1.139081e-05	6.009289e-05	1.827360e-03	1.962031e-03	1.239341e-03	-2.337660e-04	-1.427715e-04	-7.553786e-05	9.718217e-04	-1.163909e-03	-1.014992e-03	-8.771244e-04	-7.507148e-04	5.005629e-04	5.316650e-04	5.436133e-04	5.762242e-04	5.930579e-04	1.686196e-04	2.036795e-04	2.574096e-04	2.839419e-04	3.298723e-04	-3.867557e-03	-3.692905e-03	-3.532575e-03	1.247527e-03	1.290715e-03	1.328655e-03	1.364535e-03	1.409933e-03	3.981434e-03	4.079784e-03	1.808468e-03	1.863676e-03	2.776939e-03	2.904933e-03	3.050689e-03	-2.652979e-03	-2.560026e-03	-2.450725e-03	-2.363094e-03	-2.248681e-03	-2.153249e-03	-2.036387e-03	-1.880920e-03	-1.698449e-03	-1.526312e-03	-1.013054e-03	-7.391015e-04	-4.546318e-04	1.310340e-04	4.168175e-04	1.956019e-03	2.032838e-03	2.134902e-03	2.215008e-03	2.315231e-03	2.430590e-03	2.544275e-03	4.139570e-03	4.175887e-03	1.193847e-03	1.193171e-03	1.178424e-03	7.622421e-04	8.211334e-04	4.179460e-03	4.105530e-03	3.892064e-03	3.195813e-03	3.348387e-03	3.517958e-03	3.686062e-03	3.839333e-03	1.490287e-03	1.645045e-03	1.784521e-03	1.932994e-03	-2.991287e-03	-2.879952e-03	1.049334e-03	1.121247e-03	3.515189e-04	3.923150e-04	4.082021e-04	4.432815e-04	6.521425e-03	-9.015236e-03	-2.030261e-03	-2.081999e-03	1.892593e-03	1.514165e-03	-4.183903e-03	-1.393134e-03	-3.251193e-03	2.785341e-03	1.683743e-03	-2.392435e-03	-1.366673e-03	-1.910540e-03	2.017491e-03	-5.269073e-03	1.199392e-03	-9.553240e-04	-1.781741e-03	1.438573e-03	7.463744e-04	-3.999695e-03	3.972868e-04	1.177795e-03	1.136354e-03	9.481212e-04	-3.598683e-04	6.679716e-05	-2.279380e-03	5.614300e-04	-5.416680e-04	-4.485144e-04	2.937180e-03	-3.678752e-03	-2.645923e-03	-1.751366e-03	2.060313e-03	1.369677e-03	-8.469441e-03	-3.832849e-03	-2.174143e-03	-2.391022e-03	1.788895e-03	1.098331e-03	1.128771e-03	1.261349e-03	-4.391591e-03	-1.781194e-03	-5.447492e-03	-2.331897e-03	5.796129e-03	-1.238790e-03	-2.173021e-03	-2.113466e-03	7.566832e-04	-1.501944e-03	-3.128162e-03	-3.012728e-03	9.485395e-04	2.020865e-03	1.946063e-03	1.082554e-03	3.369990e-04	-3.900852e-04	-1.647939e-03	1.068975e-03	1.070714e-03	-6.443990e-04	1.083993e-03	1.094840e-03	1.308867e-03	1.915791e-03	6.161449e-04	1.212059e-03	1.256728e-03	-3.789725e-05	1.594006e-03	1.096793e-03	1.094494e-03	-2.327941e-04	-1.363280e-04	8.130597e-04	-1.106209e-03	-9.723240e-04	-8.559946e-04	-7.494948e-04	4.423821e-04	4.896546e-04	5.183787e-04	1.546275e-04	2.297889e-04	-3.528148e-03	-3.385614e-03	1.349645e-03	1.430785e-03	3.865310e-03	1.998720e-03	3.124928e-03	-1.497479e-03	-2.446123e-03	-2.245766e-03	-2.039601e-03	-1.841665e-03	-1.667324e-03	-1.290142e-03	-1.041369e-03	-7.808223e-04	-5.140715e-04	-2.387738e-04	4.132565e-05	3.173875e-04	5.612776e-04	2.166287e-03	2.357116e-03	2.533091e-03	2.641993e-03	2.773213e-03	3.822787e-03	3.763708e-03	1.084413e-03	1.084639e-03	1.068243e-03	6.518967e-04	6.880290e-04	3.675310e-03	3.506796e-03	3.206205e-03	2.743138e-03	3.274863e-03	3.415938e-03	3.558328e-03	3.689830e-03	3.783004e-03	3.887830e-03	1.581435e-03	1.797732e-03	-2.919020e-03	-2.793193e-03	8.821957e-04	1.006186e-03	1.051576e-03	2.945312e-04	3.489041e-04	-4.491690e-03	5.094854e-03	5.063915e-03	-5.858650e-03	-8.790721e-04	-3.980345e-03	-3.564807e-03	2.362650e-03	-1.906346e-03	-1.618335e-03	3.169409e-03	1.948735e-03	2.723224e-04	-1.656680e-03	-2.332011e-03	-3.210016e-03	9.795410e-04	1.804539e-03	-5.001302e-03	9.887979e-04	-1.379219e-03	3.618738e-03	9.466374e-04	-1.829468e-03	4.594380e-04	1.068135e-03	8.758118e-04	6.979859e-04	1.238771e-03	1.286092e-03	-1.269751e-03	-1.158606e-03	-6.728798e-03	-3.605422e-03	-3.755802e-03	-2.988612e-03	2.100043e-03	6.348263e-04	9.550842e-04	-6.431567e-04	-7.706383e-03	-7.785240e-03	-2.211912e-03	1.193755e-03	-3.095730e-03	9.430483e-05	1.344049e-03	-1.301467e-03	-1.724116e-03	6.393993e-04	-2.211158e-03	-5.585108e-04	-4.738685e-04	-3.466404e-03	-2.013990e-03	1.155554e-03	1.403694e-03	9.733920e-04	-2.331204e-03	3.633650e-03	-7.386445e-04	-2.016578e-03	-1.937664e-03	1.005193e-03	-1.502135e-03	-2.888994e-03	8.230307e-04	2.042701e-03	4.214580e-04	-3.419799e-04	-8.674560e-04	9.597297e-04	9.715370e-04	1.011316e-03	1.044255e-03	1.532464e-03	5.070548e-04	1.092672e-03	1.121294e-03	4.234945e-04	9.664400e-04	9.631325e-04	9.798963e-04	-3.771207e-04	-2.695399e-04	-1.828339e-04	-1.035719e-03	3.303711e-04	3.797430e-04	-8.656489e-05	8.190594e-06	9.217439e-04	-3.335102e-03	1.167909e-03	1.286040e-03	3.106175e-03	-2.404673e-03	-2.204807e-03	-1.471964e-03	-2.000962e-03	-1.807938e-03	-1.634031e-03	-1.296712e-03	-1.086275e-03	-8.494944e-04	-6.023901e-04	-3.485125e-04	-8.684018e-05	1.757827e-04	2.083422e-03	2.161971e-03	2.341947e-03	2.541857e-03	2.730084e-03	2.931621e-03	3.457588e-03	3.329071e-03	9.747434e-04	9.574811e-04	5.556270e-04	5.930798e-04	3.185078e-03	2.969933e-03	2.633326e-03	2.179995e-03	1.611621e-03	3.255240e-03	3.384277e-03