# vtk DataFile Version 3.0
vtk output
ASCII
DATASET UNSTRUCTURED_GRID
POINTS 5233 float
9.997500e-01	-3.632909e-05	0.0	9.990000e-01	-1.452618e-04	0.0	9.977600e-01	-3.252008e-04	0.0	9.960200e-01	-5.774943e-04	0.0	9.937800e-01	-9.022942e-04	0.0	9.910500e-01	-1.298763e-03	0.0	9.878400e-01	-1.766726e-03	0.0	9.841300e-01	-2.311194e-03	0.0	9.799500e-01	-2.930640e-03	0.0	9.752800e-01	-3.631444e-03	0.0	9.701500e-01	-4.412625e-03	0.0	9.645400e-01	-5.280292e-03	0.0	9.584700e-01	-6.233365e-03	0.0	9.519400e-01	-7.272227e-03	0.0	9.449600e-01	-8.393908e-03	0.0	9.375400e-01	-9.593773e-03	0.0	9.296900e-01	-1.086609e-02	0.0	9.214000e-01	-1.220804e-02	0.0	9.127000e-01	-1.361074e-02	0.0	9.035800e-01	-1.507272e-02	0.0	8.940600e-01	-1.658877e-02	0.0	8.841500e-01	-1.815610e-02	0.0	8.738500e-01	-1.977361e-02	0.0	8.631800e-01	-2.143627e-02	0.0	8.521600e-01	-2.313752e-02	0.0	8.407700e-01	-2.487471e-02	0.0	8.290500e-01	-2.663345e-02	0.0	8.170100e-01	-2.840162e-02	0.0	8.046400e-01	-3.016792e-02	0.0	7.919700e-01	-3.191393e-02	0.0	7.790100e-01	-3.362378e-02	0.0	7.657800e-01	-3.528073e-02	0.0	7.522800e-01	-3.687177e-02	0.0	7.385200e-01	-3.838440e-02	0.0	7.245300e-01	-3.980643e-02	0.0	7.103200e-01	-4.113073e-02	0.0	6.958900e-01	-4.235375e-02	0.0	6.812700e-01	-4.347212e-02	0.0	6.664700e-01	-4.448693e-02	0.0	6.515000e-01	-4.540154e-02	0.0	6.363800e-01	-4.622067e-02	0.0	6.211300e-01	-4.695082e-02	0.0	6.057600e-01	-4.760016e-02	0.0	5.902800e-01	-4.817747e-02	0.0	5.747100e-01	-4.869148e-02	0.0	5.590600e-01	-4.915119e-02	0.0	5.433600e-01	-4.956464e-02	0.0	5.276100e-01	-4.993996e-02	0.0	5.118400e-01	-5.028359e-02	0.0	4.960500e-01	-5.060149e-02	0.0	4.802700e-01	-5.089775e-02	0.0	4.645100e-01	-5.117554e-02	0.0	4.487800e-01	-5.143670e-02	0.0	4.331100e-01	-5.168146e-02	0.0	4.175000e-01	-5.190932e-02	0.0	4.019700e-01	-5.211839e-02	0.0	3.865400e-01	-5.230586e-02	0.0	3.712300e-01	-5.246816e-02	0.0	3.560400e-01	-5.260130e-02	0.0	3.409900e-01	-5.270061e-02	0.0	3.261100e-01	-5.276113e-02	0.0	3.114000e-01	-5.277790e-02	0.0	2.968700e-01	-5.274582e-02	0.0	2.825500e-01	-5.265996e-02	0.0	2.684500e-01	-5.251559e-02	0.0	2.545700e-01	-5.230801e-02	0.0	2.409400e-01	-5.203324e-02	0.0	2.275700e-01	-5.168749e-02	0.0	2.144700e-01	-5.126729e-02	0.0	2.016600e-01	-5.076993e-02	0.0	1.891400e-01	-5.019238e-02	0.0	1.769300e-01	-4.953284e-02	0.0	1.650400e-01	-4.878952e-02	0.0	1.534900e-01	-4.796177e-02	0.0	1.422900e-01	-4.704883e-02	0.0	1.314400e-01	-4.604934e-02	0.0	1.209500e-01	-4.496296e-02	0.0	1.108500e-01	-4.379208e-02	0.0	1.011300e-01	-4.253503e-02	0.0	9.181000e-02	-4.119389e-02	0.0	8.290000e-02	-3.976997e-02	0.0	7.440000e-02	-3.826304e-02	0.0	6.633000e-02	-3.667657e-02	0.0	5.869000e-02	-3.501058e-02	0.0	5.149000e-02	-3.326708e-02	0.0	4.474000e-02	-3.144844e-02	0.0	3.844000e-02	-2.955433e-02	0.0	3.260000e-02	-2.758711e-02	0.0	2.723000e-02	-2.554977e-02	0.0	2.232000e-02	-2.343708e-02	0.0	1.790000e-02	-2.126113e-02	0.0	1.395000e-02	-1.901092e-02	0.0	1.049000e-02	-1.669561e-02	0.0	7.520000e-03	-1.431461e-02	0.0	5.040000e-03	-1.186637e-02	0.0	3.050000e-03	-9.347302e-03	0.0	1.560000e-03	-6.769269e-03	0.0	5.600000e-04	-4.108233e-03	0.0	6.000000e-05	-1.363608e-03	0.0	0.000000e+00	0.000000e+00	0.0	6.000000e-05	1.350236e-03	0.0	5.600000e-04	4.050826e-03	0.0	1.560000e-03	6.663226e-03	0.0	3.050000e-03	9.195473e-03	0.0	5.040000e-03	1.167583e-02	0.0	7.520000e-03	1.409653e-02	0.0	1.049000e-02	1.646478e-02	0.0	1.395000e-02	1.878581e-02	0.0	1.790000e-02	2.106403e-02	0.0	2.232000e-02	2.329392e-02	0.0	2.723000e-02	2.549065e-02	0.0	3.260000e-02	2.764558e-02	0.0	3.844000e-02	2.976800e-02	0.0	4.474000e-02	3.185849e-02	0.0	5.149000e-02	3.391797e-02	0.0	5.869000e-02	3.595015e-02	0.0	6.633000e-02	3.795531e-02	0.0	7.440000e-02	3.993367e-02	0.0	8.290000e-02	4.188739e-02	0.0	9.181000e-02	4.381361e-02	0.0	1.011300e-01	4.571359e-02	0.0	1.108500e-01	4.758588e-02	0.0	1.209500e-01	4.942683e-02	0.0	1.314400e-01	5.123782e-02	0.0	1.422900e-01	5.301272e-02	0.0	1.534900e-01	5.474871e-02	0.0	1.650400e-01	5.644398e-02	0.0	1.769300e-01	5.809472e-02	0.0	1.891400e-01	5.969553e-02	0.0	2.016600e-01	6.124223e-02	0.0	2.144700e-01	6.272926e-02	0.0	2.275700e-01	6.415328e-02	0.0	2.409400e-01	6.550849e-02	0.0	2.545700e-01	6.679020e-02	0.0	2.684500e-01	6.799357e-02	0.0	2.825500e-01	6.911218e-02	0.0	2.968700e-01	7.014214e-02	0.0	3.114000e-01	7.107860e-02	0.0	3.261100e-01	7.191555e-02	0.0	3.409900e-01	7.264840e-02	0.0	3.560400e-01	7.327286e-02	0.0	3.712300e-01	7.378330e-02	0.0	3.865400e-01	7.417483e-02	0.0	4.019700e-01	7.444303e-02	0.0	4.175000e-01	7.458295e-02	0.0	4.331100e-01	7.458992e-02	0.0	4.487800e-01	7.445955e-02	0.0	4.645100e-01	7.418745e-02	0.0	4.802700e-01	7.376991e-02	0.0	4.960500e-01	7.320341e-02	0.0	5.118400e-01	7.248482e-02	0.0	5.276100e-01	7.161270e-02	0.0	5.433600e-01	7.058503e-02	0.0	5.590600e-01	6.940265e-02	0.0	5.747100e-01	6.806549e-02	0.0	5.902800e-01	6.657731e-02	0.0	6.057600e-01	6.494175e-02	0.0	6.211300e-01	6.316504e-02	0.0	6.363800e-01	6.125402e-02	0.0	6.515000e-01	5.921698e-02	0.0	6.664700e-01	5.706516e-02	0.0	6.812700e-01	5.481151e-02	0.0	6.958900e-01	5.246892e-02	0.0	7.103200e-01	5.005129e-02	0.0	7.245300e-01	4.757686e-02	0.0	7.385200e-01	4.505941e-02	0.0	7.522800e-01	4.251466e-02	0.0	7.657800e-01	3.996213e-02	0.0	7.790100e-01	3.741749e-02	0.0	7.919700e-01	3.489399e-02	0.0	8.046400e-01	3.240819e-02	0.0	8.170100e-01	2.997405e-02	0.0	8.290500e-01	2.760884e-02	0.0	8.407700e-01	2.532127e-02	0.0	8.521600e-01	2.312328e-02	0.0	8.631800e-01	2.103157e-02	0.0	8.738500e-01	1.905016e-02	0.0	8.841500e-01	1.718895e-02	0.0	8.940600e-01	1.545535e-02	0.0	9.035800e-01	1.385019e-02	0.0	9.127000e-01	1.237271e-02	0.0	9.214000e-01	1.102010e-02	0.0	9.296900e-01	9.781662e-03	0.0	9.375400e-01	8.650401e-03	0.0	9.449600e-01	7.612208e-03	0.0	9.519400e-01	6.656126e-03	0.0	9.584700e-01	5.772587e-03	0.0	9.645400e-01	4.954359e-03	0.0	9.701500e-01	4.195689e-03	0.0	9.752800e-01	3.496291e-03	0.0	9.799500e-01	2.852720e-03	0.0	9.841300e-01	2.270023e-03	0.0	9.878400e-01	1.747228e-03	0.0	9.910500e-01	1.290667e-03	0.0	9.937800e-01	8.994899e-04	0.0	9.960200e-01	5.767420e-04	0.0	9.977600e-01	3.250644e-04	0.0	9.990000e-01	1.452495e-04	0.0	9.997500e-01	3.632890e-05	0.0	1.000000e+00	0.000000e+00	0.0	1.984229e+01	2.506660e+00	0.0	1.937166e+01	4.973800e+00	0.0	1.859553e+01	7.362490e+00	0.0	1.752613e+01	9.635070e+00	0.0	1.618034e+01	1.175571e+01	0.0	1.457937e+01	1.369094e+01	0.0	1.274848e+01	1.541027e+01	0.0	1.071654e+01	1.688656e+01	0.0	8.515590e+00	1.809654e+01	0.0	6.180340e+00	1.902113e+01	0.0	3.747630e+00	1.964575e+01	0.0	1.255810e+00	1.996053e+01	0.0	-1.255810e+00	1.996053e+01	0.0	-3.747630e+00	1.964574e+01	0.0	-6.180340e+00	1.902113e+01	0.0	-8.515590e+00	1.809654e+01	0.0	-1.071654e+01	1.688656e+01	0.0	-1.274848e+01	1.541026e+01	0.0	-1.457937e+01	1.369094e+01	0.0	-1.618034e+01	1.175570e+01	0.0	-1.752613e+01	9.635070e+00	0.0	-1.859553e+01	7.362490e+00	0.0	-1.937166e+01	4.973800e+00	0.0	-1.984229e+01	2.506660e+00	0.0	-2.000000e+01	0.000000e+00	0.0	-1.984229e+01	-2.506670e+00	0.0	-1.937166e+01	-4.973800e+00	0.0	-1.859553e+01	-7.362490e+00	0.0	-1.752613e+01	-9.635080e+00	0.0	-1.618034e+01	-1.175571e+01	0.0	-1.457937e+01	-1.369094e+01	0.0	-1.274848e+01	-1.541027e+01	0.0	-1.071653e+01	-1.688656e+01	0.0	-8.515580e+00	-1.809654e+01	0.0	-6.180340e+00	-1.902113e+01	0.0	-3.747620e+00	-1.964575e+01	0.0	-1.255810e+00	-1.996053e+01	0.0	1.255810e+00	-1.996053e+01	0.0	3.747630e+00	-1.964574e+01	0.0	6.180340e+00	-1.902113e+01	0.0	8.515590e+00	-1.809654e+01	0.0	1.071654e+01	-1.688656e+01	0.0	1.274848e+01	-1.541026e+01	0.0	1.457937e+01	-1.369094e+01	0.0	1.618034e+01	-1.175570e+01	0.0	1.752614e+01	-9.635070e+00	0.0	1.859553e+01	-7.362490e+00	0.0	1.937166e+01	-4.973790e+00	0.0	1.984229e+01	-2.506660e+00	0.0	2.000000e+01	0.000000e+00	0.0	6.093892e-02	-4.285144e-02	0.0	6.600410e-01	-5.844939e-02	0.0	4.255297e-01	8.863687e-02	0.0	6.904536e-01	6.677179e-02	0.0	3.791252e-01	-6.656260e-02	0.0	9.994589e-01	-7.258723e-04	0.0	9.985402e-01	-1.320872e-03	0.0	7.738251e-01	-4.634860e-02	0.0	6.897588e-01	-5.606349e-02	0.0	-1.367138e-03	6.233161e-03	0.0	7.467650e-01	-4.997311e-02	0.0	5.838090e-01	8.122916e-02	0.0	9.927651e-01	-3.598793e-03	0.0	9.898616e-01	-4.480982e-03	0.0	5.994275e-01	7.958836e-02	0.0	7.187102e-01	-5.322760e-02	0.0	-1.548094e-03	7.305687e-04	0.0	9.864673e-01	-5.441292e-03	0.0	9.825916e-01	-6.470515e-03	0.0	-1.358171e-03	-6.336027e-03	0.0	6.449375e-01	-5.947833e-02	0.0	8.244939e-01	-3.842106e-02	0.0	7.997632e-01	-4.246746e-02	0.0	3.482204e-01	8.660152e-02	0.0	8.478910e-01	-3.434813e-02	0.0	2.468390e-01	7.862192e-02	0.0	8.698983e-01	-3.032503e-02	0.0	1.001408e-02	2.079824e-02	0.0	8.904116e-01	-2.642047e-02	0.0	7.722818e-02	-4.682321e-02	0.0	9.093595e-01	-2.267674e-02	0.0	-1.865007e-03	-3.138557e-03	0.0	9.422484e-01	-1.580904e-02	0.0	9.266631e-01	-1.912583e-02	0.0	1.806769e-02	-2.637803e-02	0.0	4.256782e-01	-6.623083e-02	0.0	8.590773e-01	-3.232303e-02	0.0	9.560748e-01	-1.276843e-02	0.0	9.782290e-01	-7.589010e-03	0.0	9.680882e-01	-1.002215e-02	0.0	1.584746e-01	-5.900398e-02	0.0	9.000881e-01	-2.452666e-02	0.0	7.604299e-01	-4.820093e-02	0.0	9.971132e-01	-2.058079e-03	0.0	5.988429e-01	-6.197001e-02	0.0	4.413590e-01	-6.604490e-02	0.0	5.361230e-01	-6.418097e-02	0.0	4.728882e-01	-6.557080e-02	0.0	5.045102e-01	-6.495629e-02	0.0	4.886866e-01	-6.528085e-02	0.0	1.251652e-01	-5.514410e-02	0.0	2.799454e-02	-3.148915e-02	0.0	3.945492e-01	-6.649285e-02	0.0	4.640172e-02	-3.855324e-02	0.0	4.100682e-01	-6.638196e-02	0.0	3.187978e-01	-6.636792e-02	0.0	3.486567e-01	-6.657206e-02	0.0	3.367005e-02	-3.391128e-02	0.0	2.896281e-01	-6.592628e-02	0.0	9.346743e-01	-1.743395e-02	0.0	1.470184e-01	-5.780948e-02	0.0	1.948400e-01	-6.200962e-02	0.0	8.600599e-02	-4.867547e-02	0.0	1.048018e-01	-5.210645e-02	0.0	5.676108e-01	-6.321237e-02	0.0	1.702734e-01	-6.010386e-02	0.0	6.143295e-01	-6.122907e-02	0.0	8.803501e-01	-2.835590e-02	0.0	2.280418e-02	-2.897635e-02	0.0	9.951875e-01	-2.803889e-03	0.0	6.796488e-03	-1.820110e-02	0.0	1.798544e-02	2.626178e-02	0.0	9.182203e-01	-2.087471e-02	0.0	9.49388
[...]
POINT_DATA 5233

SCALARS Conservative_1 float 1
LOOKUP_TABLE default
4.304905e-01	2.178636e-01	1.783795e-01	1.489164e-01	1.296645e-01	1.149302e-01	1.031908e-01	9.366494e-02	8.584709e-02	7.936399e-02	7.393323e-02	6.935835e-02	6.545622e-02	6.212024e-02	5.923959e-02	5.673939e-02	5.455481e-02	5.251404e-02	5.059581e-02	4.884796e-02	4.743629e-02	4.625214e-02	4.528240e-02	4.449687e-02	4.381297e-02	4.329584e-02	4.282661e-02	4.248768e-02	4.215132e-02	4.186171e-02	4.158756e-02	4.123115e-02	4.090938e-02	4.042554e-02	3.994543e-02	3.931044e-02	3.867201e-02	3.789077e-02	3.712707e-02	3.624709e-02	3.541043e-02	3.449018e-02	3.363991e-02	3.273503e-02	3.191617e-02	3.107349e-02	3.031479e-02	2.956536e-02	2.888246e-02	2.823193e-02	2.763694e-02	2.707486e-02	2.654249e-02	2.606966e-02	2.560165e-02	2.519920e-02	2.479219e-02	2.443703e-02	2.406962e-02	2.374416e-02	2.339858e-02	2.308767e-02	2.274579e-02	2.243128e-02	2.207883e-02	2.174466e-02	2.136706e-02	2.099908e-02	2.058777e-02	2.016687e-02	1.971460e-02	1.922939e-02	1.872482e-02	1.817284e-02	1.759411e-02	1.697855e-02	1.631179e-02	1.561154e-02	1.485735e-02	1.405960e-02	1.320305e-02	1.229344e-02	1.132169e-02	1.028588e-02	9.178483e-03	7.999798e-03	6.739977e-03	5.398071e-03	3.978232e-03	2.467563e-03	9.158610e-04	-5.148898e-04	-2.354596e-03	-4.759278e-03	-2.054335e-03	6.316020e-03	8.064336e-03	2.496938e-03	-4.732484e-03	-1.144131e-02	-1.765853e-02	-3.122807e-02	-5.153810e-02	-6.815663e-02	-8.221233e-02	-1.038584e-01	-1.309485e-01	-1.507452e-01	-1.597777e-01	-1.631535e-01	-1.648540e-01	-1.656053e-01	-1.652001e-01	-1.633092e-01	-1.602529e-01	-1.564650e-01	-1.524316e-01	-1.485062e-01	-1.450369e-01	-1.421238e-01	-1.397462e-01	-1.380074e-01	-1.369488e-01	-1.365211e-01	-1.363625e-01	-1.361827e-01	-1.359039e-01	-1.355780e-01	-1.352661e-01	-1.349869e-01	-1.345089e-01	-1.338740e-01	-1.330003e-01	-1.320465e-01	-1.312369e-01	-1.305414e-01	-1.298233e-01	-1.282598e-01	-1.253959e-01	-1.206847e-01	-1.135312e-01	-1.024237e-01	-8.951896e-02	-8.089841e-02	-7.899086e-02	-8.092337e-02	-8.341185e-02	-8.512335e-02	-8.608965e-02	-8.664059e-02	-8.671663e-02	-8.644520e-02	-8.568569e-02	-8.464141e-02	-8.339749e-02	-8.188836e-02	-8.037416e-02	-7.864937e-02	-7.689148e-02	-7.509808e-02	-7.322507e-02	-7.144366e-02	-6.959404e-02	-6.790130e-02	-6.616835e-02	-6.462445e-02	-6.307270e-02	-6.173305e-02	-6.040691e-02	-5.930447e-02	-5.823110e-02	-5.739671e-02	-5.658298e-02	-5.602995e-02	-5.558524e-02	-5.533555e-02	-5.531589e-02	-5.551230e-02	-5.605262e-02	-5.686102e-02	-5.819948e-02	-5.985071e-02	-6.177980e-02	-6.391172e-02	-6.645562e-02	-6.934059e-02	-7.266211e-02	-7.637615e-02	-8.058423e-02	-8.534113e-02	-9.081130e-02	-9.715390e-02	-1.046436e-01	-1.135737e-01	-1.243995e-01	-1.377075e-01	-1.579635e-01	-1.763979e-01	-3.369800e-01	3.565356e-02	-1.159003e-04	-1.268114e-04	-1.370161e-04	-1.456839e-04	-1.562726e-04	-1.642081e-04	-1.729633e-04	-1.756665e-04	-1.692147e-04	-1.671057e-04	-1.725011e-04	-1.736890e-04	-1.757665e-04	-1.671325e-04	-1.478211e-04	-1.387366e-04	-1.197337e-04	-1.061082e-04	-9.121432e-05	-7.176391e-05	-4.468149e-05	-2.861760e-05	3.174565e-05	1.771144e-04	1.289552e-04	1.531105e-04	2.171943e-04	2.242725e-04	1.371600e-04	1.701194e-04	1.981649e-04	2.127198e-04	2.243071e-04	2.261287e-04	2.251756e-04	2.135875e-04	1.788095e-04	1.480097e-04	8.978048e-05	6.586747e-05	5.401128e-05	3.294370e-05	1.169410e-05	-1.030679e-05	-3.081793e-05	-4.892125e-05	-6.450013e-05	-7.945848e-05	-9.258178e-05	-1.049025e-04	9.911559e-03	3.246654e-02	-6.960041e-02	-6.118852e-02	2.176663e-02	3.359004e-01	2.407824e-01	3.763335e-02	3.398199e-02	-3.184860e-02	3.656394e-02	-6.988663e-02	1.278009e-01	1.118314e-01	-6.873124e-02	3.536181e-02	-1.343212e-02	9.975646e-02	9.032284e-02	4.037592e-03	3.169790e-02	3.976581e-02	3.865017e-02	-9.068889e-02	4.114664e-02	-1.094456e-01	4.296164e-02	-1.115067e-01	4.545084e-02	1.163078e-02	4.893270e-02	-1.823408e-03	5.735615e-02	5.285483e-02	1.651570e-03	2.283866e-02	4.197817e-02	6.326616e-02	8.272534e-02	7.132745e-02	1.649845e-02	4.706682e-02	3.713884e-02	1.829341e-01	2.931751e-02	2.325934e-02	2.646956e-02	2.418002e-02	2.525473e-02	2.470499e-02	1.498570e-02	4.378834e-03	2.209566e-02	7.923100e-03	2.246592e-02	2.055679e-02	2.113936e-02	5.638015e-03	1.998708e-02	5.498495e-02	1.603431e-02	1.774197e-02	1.239939e-02	1.378382e-02	2.782921e-02	1.694464e-02	3.011428e-02	4.409690e-02	3.053034e-03	1.499823e-01	-2.982194e-03	-1.342416e-01	5.088736e-02	6.008880e-02	7.649705e-02	-4.574430e-02	4.039479e-02	1.909277e-02	2.714246e-02	3.600186e-02	3.814893e-02	1.440779e-02	1.845166e-02	2.857591e-02	3.325690e-02	8.950787e-03	-3.584499e-03	2.982701e-04	2.143697e-02	1.735401e-02	4.546228e-01	1.878695e-02	1.311879e-02	2.026172e-02	1.940629e-02	2.369971e-02	3.471245e-02	-1.995543e-02	6.415123e-03	-7.257219e-02	-8.252296e-03	-1.411519e-01	-1.383661e-01	-1.426093e-01	-1.179895e-01	-6.868267e-02	-1.667153e-01	-7.304407e-02	-7.264326e-02	-8.231628e-02	-7.373432e-02	-5.421714e-02	-7.308175e-02	-7.081361e-02	-7.256461e-02	-6.012942e-02	-5.677654e-02	-1.277457e-01	-8.764440e-02	-7.020709e-02	-6.442987e-02	-1.218364e-01	-1.350116e-01	-1.056343e-01	-1.081218e-01	-1.146443e-01	-1.017187e-01	-7.187782e-02	-6.908777e-02	-1.157294e-01	-1.168876e-01	-6.629114e-02	-1.134534e-01	-1.118604e-01	-6.371944e-02	-7.088708e-02	-5.676897e-02	-5.884010e-02	-5.375025e-02	-5.505949e-02	-5.258984e-02	-5.292509e-02	-5.534802e-02	-5.292371e-02	-6.713422e-02	-5.839715e-02	-7.772829e-02	-5.267015e-02	-5.343543e-02	-5.324468e-02	-5.265912e-02	-5.583991e-02	-5.432641e-02	-5.995769e-02	-5.773736e-02	-6.499353e-02	-6.241450e-02	-7.182457e-02	-6.755138e-02	-1.127759e-01	-1.107268e-01	-1.152218e-01	-1.140630e-01	-1.410664e-01	-1.162154e-01	-1.267595e-01	-1.426100e-01	1.811157e-02	-6.732901e-02	6.696681e-02	3.917244e-02	2.083551e-02	2.584836e-02	-5.585598e-02	-1.384193e-01	-8.824651e-02	-1.245338e-01	-1.313541e-01	-1.068929e-01	-1.196354e-01	-9.397746e-02	-1.016375e-01	-1.041118e-01	-1.112891e-01	-1.238759e-01	-9.762986e-02	-8.135431e-02	-6.214853e-02	-3.919576e-01	-2.116136e-01	-2.829259e-01	3.088569e-02	6.819012e-03	-1.411910e-01	-7.324860e-02	1.534297e-03	-9.880518e-04	1.080121e-02	1.552947e-02	1.969079e-02	-1.111068e-01	-2.947096e-02	-2.015077e-02	1.727242e-02	3.026933e-02	4.777266e-02	-1.285576e-03	-5.826869e-02	2.958446e-02	3.435176e-02	1.060284e-01	1.803176e-02	3.911193e-02	3.727297e-02	1.147708e-02	3.846008e-03	1.598915e-02	1.122922e-03	6.368864e-02	1.436998e-02	3.102112e-02	2.812329e-02	2.049095e-02	1.085513e-02	1.912450e-02	4.415581e-02	3.502156e-02	-7.591412e-02	-1.125837e-01	-5.365498e-02	-4.908671e-02	-1.000741e-01	-5.284673e-02	-9.443859e-02	-5.052871e-02	-1.056287e-01	-6.717151e-02	-6.046244e-02	-6.635357e-02	-5.137277e-02	-1.174918e-01	-6.959450e-02	-8.891186e-02	-8.800038e-02	-7.375996e-02	-8.935710e-02	-1.022323e-01	2.881591e-02	1.569124e-02	-9.375884e-02	-9.593416e-02	-1.195992e-01	-7.768391e-02	-1.331104e-01	-5.237556e-02	1.471746e-02	-1.268909e-01	-1.799355e-01	-1.550643e-01	-5.761636e-02	-3.893057e-02	-2.918841e-03	-5.896677e-03	-1.021735e-02	2.370559e-03	1.506056e-01	9.435824e-03	1.960116e-01	1.392815e-01	-5.916209e-02	2.338178e-02	9.480930e-02	4.136348e-02	-5.762573e-02	1.203182e-01	-5.732323e-04	2.010485e-02	-5.789054e-02	3.811735e-02	-8.357709e-02	4.016520e-02	4.268402e-02	1.017323e-02	4.585613e-02	4.986860e-02	5.705511e-02	4.728488e-03	6.011354e-02	6.786572e-02	8.597624e-02	1.353951e-02	3.299718e-02	3.370850e-02	1.654178e-01	2.088884e-02	2.131403e-02	2.179693e-02	3.579251e-03	1.941868e-02	1.977258e-02	1.827222e-02	6.823554e-03	5.202605e-02	5.438056e-02	1.396852e-02	1.205864e-02	2.400675e-02	2.593988e-02	7.281413e-02	7.873321e-02	3.166858e-02	3.238386e-02	1.258568e-02	1.309342e-02	2.460185e-02	2.529450e-02	7.761156e-03	8.633934e-03	3.195545e-05	1.855413e-02	1.881810e-02	1.507346e-02	1.539051e-02	1.624998e-02	1.652638e-02	1.753220e-02	1.776471e-02	1.677296e-02	-1.389105e-02	-1.311467e-03	-1.209607e-01	-9.630524e-02	-6.011802e-02	-6.050621e-02	-6.046133e-02	-6.019222e-02	-8.277442e-02	-7.335133e-02	-5.700220e-02	-5.990440e-02	-5.960676e-02	-5.592252e-02	-5.520766e-02	-6.349591e-02	-1.144133e-01	-1.172911e-01	-8.664807e-02	-8.518707e-02	-9.515324e-02	-9.697813e-02	-9.834555e-02	-4.893131e-02	-5.031759e-02	-5.091479e-02	-4.921622e-02	-4.891563e-02	-5.366035e-02	-4.991704e-02	-4.941966e-02	-4.877634e-02	-4.885834e-02	-4.946782e-02	-4.990543e-02	-5.146718e-02	-5.218336e-02	-5.439351e-02	-5.523981e-02	-5.903673e-02	-5.965471e-02	-5.603275e-02	-5.681480e-02	-9.061888e-02	-9.169391e-02	-9.273213e-02	-9.362219e-02	-1.055344e-01	-1.210115e-01	-1.196811e-01	3.574278e-02	3.645030e-02	2.229033e-02	2.284090e-02	-4.626656e-02	-1.170023e-01	-1.047685e-01	-1.077635e-01	-7.843456e-02	-8.143888e-02	-5.566290e-02	-5.987515e-02	-6.106310e-02	-5.887996e-02	2.667989e-02	2.735776e-02	5.813112e-03	3.416973e-03	1.704143e-02	8.358429e-05	1.671304e-02	1.496036e-02	3.157580e-02	2.015920e-02	4.616705e-02	-1.020213e-01	-9.374182e-02	-6.777315e-02	-3.993490e-02	-1.110452e-01	-2.302037e-01	-2.093047e-01	1.507350e-01	6.500896e-03	3.024761e-03	-1.227103e-02	1.044714e-02	4.833656e-02	1.035701e-01	-4.899569e-02	2.549026e-01	-1.443089e-03	2.725304e-02	8.493300e-04	2.794961e-02	1.958402e-03	3.823286e-02	-3.736872e-05	1.566637e-02	3.706267e-02	2.650984e-02	1.145301e-01	9.185361e-04	-8.092273e-02	-5.005300e-02	-6.161273e-02	-4.636718e-02	-1.233755e-01	-5.012920e-02	-6.488516e-02	-4.641946e-02	-7.572184e-02	-9.453463e-02	-2.292630e-01	2.634864e-03	-2.615562e-02	-8.648980e-02	-1.892461e-02	6.303455e-02	9.977017e-03	-8.684267e-03	1.264025e-02	1.801800e-02	4.057209e-03	-6.415782e-02	-4.541229e-02	-4.447824e-02	-4.595655e-02	-8.682763e-02	-6.450738e-02	-4.888049e-02	-4.788451e-02	-5.256795e-02	-6.221000e-02	-6.895829e-02	-8.359792e-02	2.508857e-02	2.581336e-02	1.363653e-02	-7.701676e-02	-7.666950e-02	-7.584302e-02	-1.414244e-01	-5.030506e-02	-3.306741e-02	-1.858501e-03	-4.610292e-03	5.030331e-03	2.277819e-01	2.556542e-01	6.736021e-02	9.365489e-02	-4.846931e-02	1.766676e-02	-4.970831e-02	3.501237e-02	3.596434e-02	3.950172e-02	4.090464e-02	8.862572e-03	9.445245e-03	4.242188e-02	4.421722e-02	5.605141e-02	5.929047e-02	8.538019e-02	3.006037e-02	3.089383e-02	1.294528e-01	1.842762e-02	1.878675e-02	1.698504e-02	1.733405e-02	5.922419e-03	5.068249e-02	5.319036e-02	1.201199e-02	1.233092e-02	2.070703e-02	2.123741e-02	7.239085e-02	7.836976e-02	2.871738e-02	2.943576e-02	1.088672e-02	1.129825e-02	1.168629e-02	2.184011e-02	2.243038e-02	6.757151e-03	7.526306e-03	8.239286e-03	1.588429e-02	1.616868e-02	1.640608e-02	1.289988e-02	1.315986e-02	1.342232e-02	1.388985e-02	1.408200e-02	1.520572e-02	1.540742e-02	1.432804e-02	-9.926210e-02	-5.031064e-02	-5.035456e-02	-7.153684e-02	-5.030604e-02	-5.027382e-02	-5.033087e-02	-4.765749e-02	-5.300977e-02	-9.671850e-02	-9.830478e-02	-6.664454e-02	-6.779076e-02	-7.796724e-02	-7.957817e-02	-8.139429e-02	-4.478105e-02	-5.143181e-02	-4.999171e-02	-4.710582e-02	-4.637177e-02	-4.583585e-02	-4.491731e-02	-4.481069e-02	-4.463809e-02	-4.450473e-02	-4.450832e-02	-4.464463e-02	-4.503542e-02	-4.527976e-02	-4.562172e-02	-4.676780e-02	-4.949725e-02	-4.976329e-02	-4.722555e-02	-4.763567e-02	-4.814396e-02	-7.009381e-02	-7.130048e-02	-7.258138e-02	-7.378631e-02	-7.484476e-02	-9.942324e-02	-9.863454e-02	3.241623e-02	3.324580e-02	3.406344e-02	1.919366e-02	1.970797e-02	-9.662065e-02	-9.282686e-02	-8.606975e-02	-8.887761e-02	-9.180783e-02	-5.808312e-02	-4.439610e-02	-4.121451e-02	-4.187367e-02	-5.911605e-02	-5.684426e-02	-5.487221e-02	2.308502e-02	2.372171e-02	2.441511e-02	1.452815e-02	1.476972e-02	-3.996865e-04	9.393059e-03	-1.080773e-01	-7.694034e-02	1.830812e-02	-1.280779e-02	1.583054e-01	4.446882e-02	4.671096e-02	5.285007e-03	-9.381013e-02	-4.295757e-02	8.652841e-04	-6.280603e-02	5.878954e-05	-6.205025e-02	-9.978609e-02	-2.403252e-02	-4.146638e-02	-2.953368e-02	-9.015349e-02	1.011738e-01	2.976902e-02	1.102812e-02	3.651990e-03	1.469787e-02	9.063786e-03	1.563391e-02	1.296917e-02	-8.191391e-02	-4.254435e-02	-5.929048e-02	-5.686685e-02	-4.081465e-02	-6.016204e-02	-4.990606e-02	8.809857e-02	-7.800012e-02	3.536482e-02	-1.471092e-01	-8.754720e-02	1.126058e-01	6.525960e-02	2.777207e-03	2.448055e-02	-8.418219e-04	2.497561e-02	2.597660e-02	1.863616e-03	9.563560e-02	1.043337e-03	-4.230200e-02	-4.337854e-02	-3.616830e-02	-1.838954e-02	-5.354349e-02	-4.084792e-02	-4.556096e-02	-3.107547e-02	-4.201766e-02	-4.661081e-02	2.308297e-02	2.354838e-02	-7.247669e-02	-4.379251e-02	-3.560576e-02	-1.847285e-04	-3.402408e-03	4.516468e-03	6.121583e-02	8.122780e-02	-4.208101e-02	3.323299e-02	3.418850e-02	3.653354e-02	3.784732e-02	8.245376e-03	8.674141e-03	3.919975e-02	4.077484e-02	4.260612e-02	5.444852e-02	5.762348e-02	2.815752e-02	2.874661e-02	1.029390e-01	1.605462e-02	1.647864e-02	1.493139e-02	1.532607e-02	4.909479e-02	5.159736e-02	1.055340e-02	1.072384e-02	1.861447e-02	6.989332e-02	7.522792e-02	2.655759e-02	2.721124e-02	9.726067e-03	9.984494e-03	1.033465e-02	1.934528e-02	1.970240e-02	5.987833e-03	6.641560e-03	7.257184e-03	7.790099e-03	1.360677e-02	1.386966e-02	1.410535e-02	1.439974e-02	1.116744e-02	1.141628e-02	1.157663e-02	1.180014e-02	1.195687e-02	1.339617e-02	1.315756e-02	1.217305e-02	-4.319541e-02	-6.857159e-02	-6.512158e-02	-4.320831e-02	-4.310419e-02	-4.311964e-02	-4.298656e-02	-4.198376e-02	-7.872838e-02	-7.906351e-02	-5.144561e-02	-5.265092e-02	-6.144674e-02	-6.324042e-02	-6.502993e-02	-6.720115e-02	-4.910545e-02	-4.773774e-02	-4.652351e-02	-4.464666e-02	-4.389418e-02	-4.316430e-02	-4.270984e-02	-4.162471e-02	-4.148310e-02	-4.136491e-02	-4.098443e-02	-4.055526e-02	-4.085743e-02	-4.049158e-02	-4.091221e-02	-4.059613e-02	-4.112390e-02	-4.273567e-02	-4.323222e-02	-4.121229e-02	-4.191211e-02	-4.167677e-02	-4.238840e-02	-5.334967e-02	-5.436973e-02	-5.540738e-02	-5.680494e-02	-5.798916e-02	-5.906249e-02	-7.923657e-02	-7.917944e-02	3.046707e-02	3.127752e-02	3.225131e-02	1.674563e-02	1.738700e-02	1.765168e-02	-7.819276e-02	-7.535270e-02	-7.020931e-02	-6.965368e-02	-7.234217e-02	-7.482406e-02	-7.672726e-02	-3.975089e-02	-3.586278e-02	-3.129460e-02	-2.900085e-02	-5.075349e-02	-5.460538e-02	-5.267716e-02	2.049637e-02	2.089825e-02	2.174613e-02	2.218534e-02	1.234868e-02	1.257275e-02	1.274452e-02	2.746133e-03	-9.465359e-02	5.854194e-02	-1.580481e-01	2.020398e-03	2.378980e-02	8.453674e-03	1.257000e-03	-6.827810e-02	2.698447e-04	4.879861e-03	9.615196e-03	-4.892901e-02	-4.426252e-02	-2.661801e-02	-1.316365e-02	-8.574298e-03	-7.125927e-03	-8.763393e-03	2.749764e-05	9.731510e-02	-2.081319e-02	6.210947e-02	8.036907e-02	4.519080e-02	2.777288e-02	1.303525e-02	-8.407318e-02	-4.754695e-02	-5.242266e-02	-3.818039e-02	-3.817673e-02	-3.724688e-02	-3.784623e-02	-3.789556e-02	1.637942e-02	-2.062610e-02	-8.007163e-02	8.199861e-03	-1.685742e-01	-7.185337e-02	-6.411356e-03	1.724764e-01	1.842467e-01	4.336468e-02	5.445485e-03	-1.309603e-03	-5.078467e-02	5.055068e-04	-5.675683e-02	-2.220516e-02	-3.315957e-02	3.455947e-02	3.490273e-03	1.170709e-02	1.135752e-02	-7.561942e-02	-3.747552e-02	-5.453577e-02	7.495928e-02	2.228544e-02	-1.777529e-02	-2.558834e-02	-2.982047e-02	-3.635277e-02	2.091172e-02	-3.755313e-02	-3.158980e-02	-3.354389e-03	4.200303e-03	3.191662e-02	3.310111e-02	3.409285e-02	3.547773e-02	7.919498e-03	7.634269e-03	3.658420e-02	3.812904e-02	3.944540e-02	4.115883e-02	5.239116e-02	5.532300e-02	2.609024e-02	8.513092e-02	1.418087e-02	1.445042e-02	1.348037e-02	1.364649e-02	4.736331e-02	4.973295e-02	9.228934e-03	9.541078e-03	6.606370e-02	7.037536e-02	2.474056e-02	8.609814e-03	8.970067e-03	9.180056e-03	1.734897e-02	5.961104e-03	6.470923e-03	6.907476e-03	7.316133e-03	1.177033e-02	1.214094e-02	1.222296e-02	1.264397e-02	1.282466e-02	9.903404e-03	9.939978e-03	1.023473e-02	1.026413e-02	1.056482e-02	-6.498475e-02	-6.197572e-02	-5.925799e-02	-3.853950e-02	-3.794727e-02	-3.829679e-02	-3.775368e-02	-3.796605e-02	-6.182295e-02	-6.141921e-02	-3.832938e-02	-4.155519e-02	-5.155455e-02	-5.251655e-02	-5.443111e-02	-4.590659e-02	-4.492056e-02	-4.374487e-02	-4.304962e-02	-4.201169e-02	-4.142431e-02	-4.059424e-02	-3.988128e-02	-3.892101e-02	-3.854707e-02	-3.745236e-02	-3.723671e-02	-3.717971e-02	-3.743812e-02	-3.762982e-02	-4.149607e-02	-4.308441e-02	-4.286717e-02	-4.484656e-02	-4.510502e-02	-4.614674e-02	-4.751707e-02	-6.151518e-02	-6.211121e-02	2.894511e-02	3.006531e-02	3.090720e-02	1.478179e-02	1.549671e-02	-6.216315e-02	-6.027907e-02	-5.626060e-02	-5.667172e-02	-5.897810e-02	-6.089044e-02	-6.184437e-02	-6.193544e-02	-3.650068e-02	-3.473357e-02	-3.068146e-02	-2.449221e-02	-5.055460e-02	-4.898426e-02	1.844172e-02	1.963132e-02	1.061098e-02	1.093921e-02	1.097869e-02	1.130537e-02	1.865640e-01	-1.712344e-01	2.277846e-03	-9.502158e-03	8.344100e-02	5.781811e-02	-6.885491e-02	-1.717023e-02	-5.377404e-02	9.563972e-02	6.406350e-02	-4.090319e-03	5.133624e-03	2.924743e-03	-1.814706e-02	-8.144362e-02	-3.195300e-02	-2.055186e-02	3.516417e-03	5.494759e-02	1.407755e-02	-6.577983e-02	1.025677e-02	4.340900e-02	4.094556e-02	1.700929e-02	7.572642e-03	8.630804e-03	4.754683e-04	1.193188e-02	7.255335e-03	7.458954e-03	-4.378408e-02	-6.057303e-02	-4.513900e-02	-1.372721e-02	-3.645236e-02	5.223667e-02	-1.565421e-01	-6.305777e-02	-7.654220e-03	-1.981179e-03	6.774975e-02	2.218315e-02	-3.373283e-02	-3.428175e-02	-7.243339e-02	-1.267943e-03	-9.321462e-02	-5.365005e-03	1.721160e-01	5.510973e-03	1.452761e-03	1.739952e-03	-3.370344e-02	4.640958e-03	-5.188685e-02	-5.019531e-02	-3.373558e-02	-1.675085e-02	-2.434916e-02	2.089055e-02	-2.778493e-02	-2.400303e-02	4.091325e-03	3.135736e-02	3.371513e-02	7.026019e-03	3.628233e-02	3.826250e-02	4.972280e-02	7.198604e-02	1.258074e-02	4.530667e-02	4.741970e-02	8.337761e-03	6.079707e-02	2.330764e-02	2.479556e-02	7.930414e-03	8.112782e-03	1.493807e-02	5.895092e-03	6.207034e-03	6.576611e-03	6.842032e-03	1.066038e-02	1.116472e-02	1.143760e-02	8.901300e-03	9.197190e-03	-5.815004e-02	-5.588191e-02	-3.422742e-02	-3.377333e-02	-4.738134e-02	-3.146545e-02	-4.570026e-02	-3.603552e-02	-4.279462e-02	-4.087941e-02	-3.921979e-02	-3.776936e-02	-3.677065e-02	-3.523139e-02	-3.451015e-02	-3.401099e-02	-3.368849e-02	-3.350001e-02	-3.344012e-02	-3.344112e-02	-3.345780e-02	-3.452675e-02	-3.612260e-02	-3.683646e-02	-3.901304e-02	-4.018771e-02	-4.725523e-02	-4.834270e-02	2.638498e-02	2.822136e-02	2.956053e-02	1.296694e-02	1.335728e-02	-4.906620e-02	-4.794045e-02	-4.482331e-02	-4.085205e-02	-4.751584e-02	-4.905885e-02	-5.010076e-02	-5.003936e-02	-4.897518e-02	-4.959097e-02	-3.143982e-02	-2.601786e-02	-4.888487e-02	-4.703546e-02	1.592483e-02	1.819208e-02	1.948476e-02	9.535900e-03	9.882889e-03	-7.385485e-02	1.537778e-01	1.521160e-01	-1.017246e-01	6.081166e-03	-6.388151e-02	-4.275652e-02	8.494228e-02	2.720328e-03	4.145429e-03	1.054951e-01	7.367462e-02	-2.423874e-02	-1.389656e-02	-5.075620e-03	-5.190175e-02	2.106753e-02	-2.102669e-02	-8.386641e-02	3.508047e-02	4.946342e-03	-3.825544e-02	-2.707562e-02	3.161667e-03	1.037614e-02	4.130137e-02	1.626606e-02	1.329917e-02	5.048817e-02	5.271646e-02	5.262011e-03	5.540764e-03	-1.161164e-01	-5.776206e-02	-6.003464e-02	-4.876929e-02	-1.150671e-02	-3.077239e-02	1.870292e-02	6.491769e-03	-1.416757e-01	-1.426287e-01	-7.474179e-03	4.833898e-02	-5.027576e-02	4.133001e-02	5.515963e-02	-1.636882e-02	3.707043e-03	1.252410e-02	-1.746237e-03	6.599706e-03	6.690764e-03	-5.564090e-02	-1.051954e-02	4.638714e-02	5.777499e-02	1.993827e-02	-5.469620e-03	1.223799e-01	6.305686e-03	1.760182e-03	2.658465e-03	-3.081778e-02	4.556090e-03	-4.745380e-02	-3.083672e-02	-1.312962e-02	-3.080408e-02	-2.148660e-02	-1.890407e-02	3.027812e-02	3.274302e-02	3.727558e-02	3.959305e-02	6.216620e-02	1.091894e-02	4.288037e-02	4.455651e-02	1.000111e-02	2.526167e-02	2.679244e-02	2.229065e-02	6.756365e-03	6.982857e-03	7.068860e-03	5.773413e-03	9.076830e-03	9.536916e-03	7.222312e-03	7.436541e-03	1.743746e-02	-5.372121e-02	-3.083461e-02	-3.081975e-02	-3.944481e-02	-4.128630e-02	-3.920447e-02	-3.401253e-02	-3.736766e-02	-3.590336e-02	-3.482389e-02	-3.330488e-02	-3.261307e-02	-3.201431e-02	-3.157279e-02	-3.126056e-02	-3.104105e-02	-3.090791e-02	-1.740005e-02	-2.399921e-02	-2.747658e-02	-2.958120e-0