# vtk DataFile Version 3.0
vtk output
ASCII
DATASET UNSTRUCTURED_GRID
POINTS 5233 float
9.997500e-01	-3.632909e-05	0.0	9.990000e-01	-1.452618e-04	0.0	9.977600e-01	-3.252008e-04	0.0	9.960200e-01	-5.774943e-04	0.0	9.937800e-01	-9.022942e-04	0.0	9.910500e-01	-1.298763e-03	0.0	9.878400e-01	-1.766726e-03	0.0	9.841300e-01	-2.311194e-03	0.0	9.799500e-01	-2.930640e-03	0.0	9.752800e-01	-3.631444e-03	0.0	9.701500e-01	-4.412625e-03	0.0	9.645400e-01	-5.280292e-03	0.0	9.584700e-01	-6.233365e-03	0.0	9.519400e-01	-7.272227e-03	0.0	9.449600e-01	-8.393908e-03	0.0	9.375400e-01	-9.593773e-03	0.0	9.296900e-01	-1.086609e-02	0.0	9.214000e-01	-1.220804e-02	0.0	9.127000e-01	-1.361074e-02	0.0	9.035800e-01	-1.507272e-02	0.0	8.940600e-01	-1.658877e-02	0.0	8.841500e-01	-1.815610e-02	0.0	8.738500e-01	-1.977361e-02	0.0	8.631800e-01	-2.143627e-02	0.0	8.521600e-01	-2.313752e-02	0.0	8.407700e-01	-2.487471e-02	0.0	8.290500e-01	-2.663345e-02	0.0	8.170100e-01	-2.840162e-02	0.0	8.046400e-01	-3.016792e-02	0.0	7.919700e-01	-3.191393e-02	0.0	7.790100e-01	-3.362378e-02	0.0	7.657800e-01	-3.528073e-02	0.0	7.522800e-01	-3.687177e-02	0.0	7.385200e-01	-3.838440e-02	0.0	7.245300e-01	-3.980643e-02	0.0	7.103200e-01	-4.113073e-02	0.0	6.958900e-01	-4.235375e-02	0.0	6.812700e-01	-4.347212e-02	0.0	6.664700e-01	-4.448693e-02	0.0	6.515000e-01	-4.540154e-02	0.0	6.363800e-01	-4.622067e-02	0.0	6.211300e-01	-4.695082e-02	0.0	6.057600e-01	-4.760016e-02	0.0	5.902800e-01	-4.817747e-02	0.0	5.747100e-01	-4.869148e-02	0.0	5.590600e-01	-4.915119e-02	0.0	5.433600e-01	-4.956464e-02	0.0	5.276100e-01	-4.993996e-02	0.0	5.118400e-01	-5.028359e-02	0.0	4.960500e-01	-5.060149e-02	0.0	4.802700e-01	-5.089775e-02	0.0	4.645100e-01	-5.117554e-02	0.0	4.487800e-01	-5.143670e-02	0.0	4.331100e-01	-5.168146e-02	0.0	4.175000e-01	-5.190932e-02	0.0	4.019700e-01	-5.211839e-02	0.0	3.865400e-01	-5.230586e-02	0.0	3.712300e-01	-5.246816e-02	0.0	3.560400e-01	-5.260130e-02	0.0	3.409900e-01	-5.270061e-02	0.0	3.261100e-01	-5.276113e-02	0.0	3.114000e-01	-5.277790e-02	0.0	2.968700e-01	-5.274582e-02	0.0	2.825500e-01	-5.265996e-02	0.0	2.684500e-01	-5.251559e-02	0.0	2.545700e-01	-5.230801e-02	0.0	2.409400e-01	-5.203324e-02	0.0	2.275700e-01	-5.168749e-02	0.0	2.144700e-01	-5.126729e-02	0.0	2.016600e-01	-5.076993e-02	0.0	1.891400e-01	-5.019238e-02	0.0	1.769300e-01	-4.953284e-02	0.0	1.650400e-01	-4.878952e-02	0.0	1.534900e-01	-4.796177e-02	0.0	1.422900e-01	-4.704883e-02	0.0	1.314400e-01	-4.604934e-02	0.0	1.209500e-01	-4.496296e-02	0.0	1.108500e-01	-4.379208e-02	0.0	1.011300e-01	-4.253503e-02	0.0	9.181000e-02	-4.119389e-02	0.0	8.290000e-02	-3.976997e-02	0.0	7.440000e-02	-3.826304e-02	0.0	6.633000e-02	-3.667657e-02	0.0	5.869000e-02	-3.501058e-02	0.0	5.149000e-02	-3.326708e-02	0.0	4.474000e-02	-3.144844e-02	0.0	3.844000e-02	-2.955433e-02	0.0	3.260000e-02	-2.758711e-02	0.0	2.723000e-02	-2.554977e-02	0.0	2.232000e-02	-2.343708e-02	0.0	1.790000e-02	-2.126113e-02	0.0	1.395000e-02	-1.901092e-02	0.0	1.049000e-02	-1.669561e-02	0.0	7.520000e-03	-1.431461e-02	0.0	5.040000e-03	-1.186637e-02	0.0	3.050000e-03	-9.347302e-03	0.0	1.560000e-03	-6.769269e-03	0.0	5.600000e-04	-4.108233e-03	0.0	6.000000e-05	-1.363608e-03	0.0	0.000000e+00	0.000000e+00	0.0	6.000000e-05	1.350236e-03	0.0	5.600000e-04	4.050826e-03	0.0	1.560000e-03	6.663226e-03	0.0	3.050000e-03	9.195473e-03	0.0	5.040000e-03	1.167583e-02	0.0	7.520000e-03	1.409653e-02	0.0	1.049000e-02	1.646478e-02	0.0	1.395000e-02	1.878581e-02	0.0	1.790000e-02	2.106403e-02	0.0	2.232000e-02	2.329392e-02	0.0	2.723000e-02	2.549065e-02	0.0	3.260000e-02	2.764558e-02	0.0	3.844000e-02	2.976800e-02	0.0	4.474000e-02	3.185849e-02	0.0	5.149000e-02	3.391797e-02	0.0	5.869000e-02	3.595015e-02	0.0	6.633000e-02	3.795531e-02	0.0	7.440000e-02	3.993367e-02	0.0	8.290000e-02	4.188739e-02	0.0	9.181000e-02	4.381361e-02	0.0	1.011300e-01	4.571359e-02	0.0	1.108500e-01	4.758588e-02	0.0	1.209500e-01	4.942683e-02	0.0	1.314400e-01	5.123782e-02	0.0	1.422900e-01	5.301272e-02	0.0	1.534900e-01	5.474871e-02	0.0	1.650400e-01	5.644398e-02	0.0	1.769300e-01	5.809472e-02	0.0	1.891400e-01	5.969553e-02	0.0	2.016600e-01	6.124223e-02	0.0	2.144700e-01	6.272926e-02	0.0	2.275700e-01	6.415328e-02	0.0	2.409400e-01	6.550849e-02	0.0	2.545700e-01	6.679020e-02	0.0	2.684500e-01	6.799357e-02	0.0	2.825500e-01	6.911218e-02	0.0	2.968700e-01	7.014214e-02	0.0	3.114000e-01	7.107860e-02	0.0	3.261100e-01	7.191555e-02	0.0	3.409900e-01	7.264840e-02	0.0	3.560400e-01	7.327286e-02	0.0	3.712300e-01	7.378330e-02	0.0	3.865400e-01	7.417483e-02	0.0	4.019700e-01	7.444303e-02	0.0	4.175000e-01	7.458295e-02	0.0	4.331100e-01	7.458992e-02	0.0	4.487800e-01	7.445955e-02	0.0	4.645100e-01	7.418745e-02	0.0	4.802700e-01	7.376991e-02	0.0	4.960500e-01	7.320341e-02	0.0	5.118400e-01	7.248482e-02	0.0	5.276100e-01	7.161270e-02	0.0	5.433600e-01	7.058503e-02	0.0	5.590600e-01	6.940265e-02	0.0	5.747100e-01	6.806549e-02	0.0	5.902800e-01	6.657731e-02	0.0	6.057600e-01	6.494175e-02	0.0	6.211300e-01	6.316504e-02	0.0	6.363800e-01	6.125402e-02	0.0	6.515000e-01	5.921698e-02	0.0	6.664700e-01	5.706516e-02	0.0	6.812700e-01	5.481151e-02	0.0	6.958900e-01	5.246892e-02	0.0	7.103200e-01	5.005129e-02	0.0	7.245300e-01	4.757686e-02	0.0	7.385200e-01	4.505941e-02	0.0	7.522800e-01	4.251466e-02	0.0	7.657800e-01	3.996213e-02	0.0	7.790100e-01	3.741749e-02	0.0	7.919700e-01	3.489399e-02	0.0	8.046400e-01	3.240819e-02	0.0	8.170100e-01	2.997405e-02	0.0	8.290500e-01	2.760884e-02	0.0	8.407700e-01	2.532127e-02	0.0	8.521600e-01	2.312328e-02	0.0	8.631800e-01	2.103157e-02	0.0	8.738500e-01	1.905016e-02	0.0	8.841500e-01	1.718895e-02	0.0	8.940600e-01	1.545535e-02	0.0	9.035800e-01	1.385019e-02	0.0	9.127000e-01	1.237271e-02	0.0	9.214000e-01	1.102010e-02	0.0	9.296900e-01	9.781662e-03	0.0	9.375400e-01	8.650401e-03	0.0	9.449600e-01	7.612208e-03	0.0	9.519400e-01	6.656126e-03	0.0	9.584700e-01	5.772587e-03	0.0	9.645400e-01	4.954359e-03	0.0	9.701500e-01	4.195689e-03	0.0	9.752800e-01	3.496291e-03	0.0	9.799500e-01	2.852720e-03	0.0	9.841300e-01	2.270023e-03	0.0	9.878400e-01	1.747228e-03	0.0	9.910500e-01	1.290667e-03	0.0	9.937800e-01	8.994899e-04	0.0	9.960200e-01	5.767420e-04	0.0	9.977600e-01	3.250644e-04	0.0	9.990000e-01	1.452495e-04	0.0	9.997500e-01	3.632890e-05	0.0	1.000000e+00	0.000000e+00	0.0	1.984229e+01	2.506660e+00	0.0	1.937166e+01	4.973800e+00	0.0	1.859553e+01	7.362490e+00	0.0	1.752613e+01	9.635070e+00	0.0	1.618034e+01	1.175571e+01	0.0	1.457937e+01	1.369094e+01	0.0	1.274848e+01	1.541027e+01	0.0	1.071654e+01	1.688656e+01	0.0	8.515590e+00	1.809654e+01	0.0	6.180340e+00	1.902113e+01	0.0	3.747630e+00	1.964575e+01	0.0	1.255810e+00	1.996053e+01	0.0	-1.255810e+00	1.996053e+01	0.0	-3.747630e+00	1.964574e+01	0.0	-6.180340e+00	1.902113e+01	0.0	-8.515590e+00	1.809654e+01	0.0	-1.071654e+01	1.688656e+01	0.0	-1.274848e+01	1.541026e+01	0.0	-1.457937e+01	1.369094e+01	0.0	-1.618034e+01	1.175570e+01	0.0	-1.752613e+01	9.635070e+00	0.0	-1.859553e+01	7.362490e+00	0.0	-1.937166e+01	4.973800e+00	0.0	-1.984229e+01	2.506660e+00	0.0	-2.000000e+01	0.000000e+00	0.0	-1.984229e+01	-2.506670e+00	0.0	-1.937166e+01	-4.973800e+00	0.0	-1.859553e+01	-7.362490e+00	0.0	-1.752613e+01	-9.635080e+00	0.0	-1.618034e+01	-1.175571e+01	0.0	-1.457937e+01	-1.369094e+01	0.0	-1.274848e+01	-1.541027e+01	0.0	-1.071653e+01	-1.688656e+01	0.0	-8.515580e+00	-1.809654e+01	0.0	-6.180340e+00	-1.902113e+01	0.0	-3.747620e+00	-1.964575e+01	0.0	-1.255810e+00	-1.996053e+01	0.0	1.255810e+00	-1.996053e+01	0.0	3.747630e+00	-1.964574e+01	0.0	6.180340e+00	-1.902113e+01	0.0	8.515590e+00	-1.809654e+01	0.0	1.071654e+01	-1.688656e+01	0.0	1.274848e+01	-1.541026e+01	0.0	1.457937e+01	-1.369094e+01	0.0	1.618034e+01	-1.175570e+01	0.0	1.752614e+01	-9.635070e+00	0.0	1.859553e+01	-7.362490e+00	0.0	1.937166e+01	-4.973790e+00	0.0	1.984229e+01	-2.506660e+00	0.0	2.000000e+01	0.000000e+00	0.0	6.093892e-02	-4.285144e-02	0.0	6.600410e-01	-5.844939e-02	0.0	4.255297e-01	8.863687e-02	0.0	6.904536e-01	6.677179e-02	0.0	3.791252e-01	-6.656260e-02	0.0	9.994589e-01	-7.258723e-04	0.0	9.985402e-01	-1.320872e-03	0.0	7.738251e-01	-4.634860e-02	0.0	6.897588e-01	-5.606349e-02	0.0	-1.367138e-03	6.233161e-03	0.0	7.467650e-01	-4.997311e-02	0.0	5.838090e-01	8.122916e-02	0.0	9.927651e-01	-3.598793e-03	0.0	9.898616e-01	-4.480982e-03	0.0	5.994275e-01	7.958836e-02	0.0	7.187102e-01	-5.322760e-02	0.0	-1.548094e-03	7.305687e-04	0.0	9.864673e-01	-5.441292e-03	0.0	9.825916e-01	-6.470515e-03	0.0	-1.358171e-03	-6.336027e-03	0.0	6.449375e-01	-5.947833e-02	0.0	8.244939e-01	-3.842106e-02	0.0	7.997632e-01	-4.246746e-02	0.0	3.482204e-01	8.660152e-02	0.0	8.478910e-01	-3.434813e-02	0.0	2.468390e-01	7.862192e-02	0.0	8.698983e-01	-3.032503e-02	0.0	1.001408e-02	2.079824e-02	0.0	8.904116e-01	-2.642047e-02	0.0	7.722818e-02	-4.682321e-02	0.0	9.093595e-01	-2.267674e-02	0.0	-1.865007e-03	-3.138557e-03	0.0	9.422484e-01	-1.580904e-02	0.0	9.266631e-01	-1.912583e-02	0.0	1.806769e-02	-2.637803e-02	0.0	4.256782e-01	-6.623083e-02	0.0	8.590773e-01	-3.232303e-02	0.0	9.560748e-01	-1.276843e-02	0.0	9.782290e-01	-7.589010e-03	0.0	9.680882e-01	-1.002215e-02	0.0	1.584746e-01	-5.900398e-02	0.0	9.000881e-01	-2.452666e-02	0.0	7.604299e-01	-4.820093e-02	0.0	9.971132e-01	-2.058079e-03	0.0	5.988429e-01	-6.197001e-02	0.0	4.413590e-01	-6.604490e-02	0.0	5.361230e-01	-6.418097e-02	0.0	4.728882e-01	-6.557080e-02	0.0	5.045102e-01	-6.495629e-02	0.0	4.886866e-01	-6.528085e-02	0.0	1.251652e-01	-5.514410e-02	0.0	2.799454e-02	-3.148915e-02	0.0	3.945492e-01	-6.649285e-02	0.0	4.640172e-02	-3.855324e-02	0.0	4.100682e-01	-6.638196e-02	0.0	3.187978e-01	-6.636792e-02	0.0	3.486567e-01	-6.657206e-02	0.0	3.367005e-02	-3.391128e-02	0.0	2.896281e-01	-6.592628e-02	0.0	9.346743e-01	-1.743395e-02	0.0	1.470184e-01	-5.780948e-02	0.0	1.948400e-01	-6.200962e-02	0.0	8.600599e-02	-4.867547e-02	0.0	1.048018e-01	-5.210645e-02	0.0	5.676108e-01	-6.321237e-02	0.0	1.702734e-01	-6.010386e-02	0.0	6.143295e-01	-6.122907e-02	0.0	8.803501e-01	-2.835590e-02	0.0	2.280418e-02	-2.897635e-02	0.0	9.951875e-01	-2.803889e-03	0.0	6.796488e-03	-1.820110e-02	0.0	1.798544e-02	2.626178e-02	0.0	9.182203e-01	-2.087471e-02	0.0	9.49388
[...]
POINT_DATA 5233

SCALARS Conservative_1 float 1
LOOKUP_TABLE default
1.768988e-02	8.217313e-03	6.491812e-03	5.245637e-03	4.450172e-03	3.853575e-03	3.387651e-03	3.017337e-03	2.721632e-03	2.484748e-03	2.295612e-03	2.146021e-03	2.029074e-03	1.939565e-03	1.872806e-03	1.823745e-03	1.790362e-03	1.764029e-03	1.744604e-03	1.732692e-03	1.733959e-03	1.743017e-03	1.762053e-03	1.793238e-03	1.832879e-03	1.884622e-03	1.941799e-03	2.007558e-03	2.074423e-03	2.141744e-03	2.206707e-03	2.261287e-03	2.309256e-03	2.338567e-03	2.356872e-03	2.354990e-03	2.341116e-03	2.308617e-03	2.266260e-03	2.208599e-03	2.145779e-03	2.072864e-03	1.999286e-03	1.920728e-03	1.845297e-03	1.769178e-03	1.698465e-03	1.630327e-03	1.568337e-03	1.511104e-03	1.460072e-03	1.414147e-03	1.373307e-03	1.338649e-03	1.307383e-03	1.281974e-03	1.258757e-03	1.239909e-03	1.221886e-03	1.206800e-03	1.191209e-03	1.176913e-03	1.160577e-03	1.144332e-03	1.124617e-03	1.103651e-03	1.077904e-03	1.049410e-03	1.015305e-03	9.767436e-04	9.321808e-04	8.812236e-04	8.238798e-04	7.586087e-04	6.859448e-04	6.047087e-04	5.139285e-04	4.139913e-04	3.031458e-04	1.814153e-04	4.707767e-05	-1.001659e-04	-2.617959e-04	-4.387983e-04	-6.331154e-04	-8.453913e-04	-1.078357e-03	-1.332403e-03	-1.609389e-03	-1.908734e-03	-2.228475e-03	-2.554609e-03	-2.888753e-03	-3.229138e-03	-3.363543e-03	-3.110030e-03	-2.825918e-03	-2.632949e-03	-2.263554e-03	-1.896615e-03	-1.582768e-03	-7.695008e-04	2.156824e-04	2.357448e-04	1.032704e-03	4.648897e-03	8.591582e-03	9.840170e-03	8.961209e-03	7.714173e-03	6.702270e-03	5.819708e-03	4.999243e-03	4.261451e-03	3.615666e-03	3.064505e-03	2.596351e-03	2.193689e-03	1.851649e-03	1.555550e-03	1.292636e-03	1.052824e-03	8.250002e-04	6.097615e-04	4.133107e-04	2.363326e-04	7.776089e-05	-6.910932e-05	-2.060119e-04	-3.369540e-04	-4.590885e-04	-5.739784e-04	-6.761923e-04	-7.659186e-04	-8.434116e-04	-9.115858e-04	-9.767838e-04	-1.031104e-03	-1.070709e-03	-1.069932e-03	-1.028282e-03	-9.166384e-04	-6.951893e-04	-3.325540e-04	3.106439e-05	2.386977e-04	2.533348e-04	1.668970e-04	6.779485e-05	-3.000947e-05	-1.271652e-04	-2.359213e-04	-3.471997e-04	-4.637664e-04	-5.852675e-04	-7.062314e-04	-8.354031e-04	-9.613467e-04	-1.088528e-03	-1.216410e-03	-1.340024e-03	-1.465992e-03	-1.585156e-03	-1.706351e-03	-1.819563e-03	-1.934471e-03	-2.041184e-03	-2.149097e-03	-2.248852e-03	-2.349987e-03	-2.443706e-03	-2.539679e-03	-2.627889e-03	-2.719022e-03	-2.807286e-03	-2.894577e-03	-2.982860e-03	-3.071103e-03	-3.166644e-03	-3.265814e-03	-3.378869e-03	-3.495284e-03	-3.615612e-03	-3.739428e-03	-3.878840e-03	-4.032940e-03	-4.207987e-03	-4.403930e-03	-4.626298e-03	-4.878454e-03	-5.167578e-03	-5.500667e-03	-5.888955e-03	-6.344813e-03	-6.887858e-03	-7.541916e-03	-8.505118e-03	-9.351765e-03	-1.648726e-02	-6.539251e-05	-1.182327e-05	-1.164908e-05	-1.131997e-05	-1.095932e-05	-1.045735e-05	-9.814367e-06	-8.964428e-06	-7.852248e-06	-6.374557e-06	-4.809665e-06	-2.820529e-06	-3.311506e-07	2.530549e-06	5.417801e-06	7.600452e-06	9.220301e-06	1.014062e-05	1.036032e-05	1.013786e-05	9.883830e-06	9.868763e-06	8.401677e-06	1.018346e-05	1.951778e-05	1.275316e-05	1.139897e-05	1.450536e-05	1.271561e-05	2.388410e-06	2.639259e-06	2.721525e-06	2.148995e-06	1.815486e-06	1.175517e-06	3.416924e-07	-7.337467e-07	-1.692396e-06	-3.063772e-06	-4.125364e-06	-5.597065e-06	-7.256327e-06	-8.529512e-06	-9.597093e-06	-1.041099e-05	-1.102918e-05	-1.147474e-05	-1.176942e-05	-1.190648e-05	-1.189466e-05	-1.193791e-05	-4.801149e-04	1.976883e-03	5.281474e-04	-1.254996e-03	1.093872e-03	1.335955e-02	9.203260e-03	2.002923e-03	2.055188e-03	-7.203360e-04	2.067169e-03	-3.125414e-04	4.389713e-03	3.740199e-03	-4.424669e-04	2.087081e-03	-1.820274e-03	3.260039e-03	2.894501e-03	-2.681902e-03	1.924879e-03	1.811294e-03	1.909992e-03	-2.839257e-04	1.728290e-03	-4.983539e-05	1.676258e-03	7.789896e-03	1.665973e-03	-1.649455e-04	1.698324e-03	-2.449194e-03	1.818140e-03	1.743051e-03	-2.103581e-03	1.164232e-03	1.697158e-03	1.961054e-03	2.609174e-03	2.207703e-03	6.337803e-04	1.677876e-03	2.041212e-03	6.705995e-03	1.733955e-03	1.195099e-03	1.474052e-03	1.269187e-03	1.362703e-03	1.313855e-03	4.071602e-04	-1.553002e-03	1.114068e-03	-8.568065e-04	1.137978e-03	1.027274e-03	1.058651e-03	-1.302333e-03	9.940895e-04	1.774864e-03	5.667371e-04	7.940513e-04	-2.776472e-05	2.108884e-04	1.600035e-03	6.940374e-04	1.801456e-03	1.665075e-03	-1.820445e-03	5.310776e-03	-2.965536e-03	7.464768e-03	1.720245e-03	1.878973e-03	2.384503e-03	-2.286658e-04	1.765807e-03	9.300282e-04	1.536074e-03	2.084314e-03	1.959240e-03	3.140441e-04	8.712581e-04	1.667412e-03	2.022245e-03	-6.605473e-04	-3.192736e-03	-2.393339e-03	1.075070e-03	7.471119e-04	1.853547e-02	9.030258e-04	9.737393e-05	1.010731e-03	9.544199e-04	1.229731e-03	2.078471e-03	-1.477465e-03	-2.877624e-03	5.005714e-05	-2.088185e-03	5.937216e-03	3.516559e-03	4.614802e-03	1.413616e-03	4.689458e-04	-8.895295e-03	1.572107e-04	4.160559e-04	-4.729140e-03	-4.273197e-03	-3.045727e-03	3.407974e-04	5.203738e-04	9.667202e-06	-3.519341e-03	-3.283123e-03	2.366256e-03	-5.010901e-03	-4.085425e-03	-3.772485e-03	1.840733e-03	3.072716e-03	-2.282874e-04	-1.188955e-04	5.868564e-04	-3.031580e-04	4.775934e-04	2.668208e-04	8.707085e-04	1.218802e-03	-7.134919e-04	3.411708e-04	1.257123e-04	-9.862302e-04	-1.842086e-04	-1.763575e-03	-1.515243e-03	-2.220589e-03	-1.998650e-03	-2.635196e-03	-2.432783e-03	-3.161536e-03	-2.835844e-03	-3.920426e-03	-3.403392e-03	-4.485598e-03	-2.735830e-03	-2.938836e-03	-2.326401e-03	-2.533694e-03	-1.881598e-03	-2.109945e-03	-1.385197e-03	-1.639698e-03	-8.492459e-04	-1.120215e-03	-6.398187e-05	-5.775653e-04	2.286170e-04	3.237233e-05	7.219895e-04	4.599461e-04	4.029715e-03	1.036710e-03	8.255658e-03	5.260488e-03	8.354614e-04	1.048619e-03	2.068583e-03	1.859333e-03	1.042448e-03	1.416531e-03	-3.986347e-04	6.640424e-03	4.815641e-03	2.086343e-03	2.691864e-03	-1.785982e-04	1.619872e-03	-5.342537e-03	-5.738192e-03	-2.720182e-04	-6.226845e-03	-6.850607e-03	-3.141132e-04	-1.874215e-04	-3.642029e-03	-1.915308e-02	-1.096320e-02	-1.420094e-02	1.864478e-03	-1.070495e-03	-7.688979e-03	2.532967e-04	-3.143400e-03	-2.677723e-03	-3.154818e-04	4.912404e-04	9.749723e-04	2.862319e-03	-9.106135e-04	-1.469186e-03	8.282660e-04	1.808192e-03	1.601787e-03	-2.719971e-03	5.965446e-05	1.784241e-03	1.763587e-03	3.507452e-03	8.820851e-04	1.580432e-03	1.630518e-03	-1.034070e-04	-2.686522e-03	6.952563e-04	-2.239520e-03	1.951415e-03	4.467409e-04	1.826962e-03	1.706598e-03	1.055582e-03	-2.300821e-04	9.527680e-04	1.564729e-03	1.731123e-03	4.629856e-03	6.361760e-03	-7.933581e-04	-2.442385e-03	1.967250e-03	-9.343462e-04	1.207639e-03	-2.766835e-03	-5.965090e-03	4.370102e-04	5.123230e-04	-3.900480e-03	-2.876160e-03	-6.556701e-03	-4.078241e-03	-5.108349e-03	6.244201e-04	3.903570e-04	6.993291e-04	2.154511e-03	1.747180e-03	6.564243e-04	6.573622e-03	1.478507e-03	3.930731e-03	-4.514756e-03	-7.318816e-03	-2.985676e-03	5.080574e-04	-7.480454e-03	-9.554878e-03	-8.372516e-03	1.501385e-03	-6.490760e-04	-2.944411e-03	-2.254490e-03	-1.993156e-03	-1.985029e-03	4.863830e-03	-5.207225e-04	7.230970e-03	4.860746e-03	8.594308e-04	1.316732e-03	3.066133e-03	1.557498e-03	-7.941663e-05	4.081964e-03	-2.516042e-03	1.024875e-03	9.134324e-04	1.601040e-03	4.479006e-04	1.564398e-03	1.557519e-03	-3.691395e-04	1.579824e-03	1.632050e-03	1.770428e-03	-1.497208e-03	1.848734e-03	2.082401e-03	2.727799e-03	2.990904e-04	1.811754e-03	1.792324e-03	5.947764e-03	1.089242e-03	1.126689e-03	1.169305e-03	-1.735997e-03	9.735871e-04	9.987471e-04	8.978265e-04	-1.062017e-03	1.665834e-03	1.710801e-03	3.767322e-04	1.242599e-05	1.373497e-03	1.545413e-03	2.249006e-03	2.459237e-03	1.830498e-03	1.828480e-03	1.171712e-04	2.134693e-04	1.429101e-03	1.489223e-03	-8.673533e-04	-6.864997e-04	-2.486921e-03	9.154289e-04	9.327180e-04	5.640477e-04	6.130455e-04	7.283723e-04	7.586201e-04	8.477356e-04	8.646079e-04	7.843697e-04	-1.813124e-03	-3.039411e-03	4.378501e-03	-5.491105e-03	4.149058e-04	6.023073e-04	6.713327e-04	7.211112e-04	-4.785773e-03	-4.281824e-03	-3.348005e-03	7.508239e-04	7.909084e-04	8.765053e-04	-3.223014e-03	-3.741274e-03	3.170622e-03	3.527279e-03	5.559774e-04	4.986835e-04	1.336959e-03	1.630540e-03	1.792766e-03	-1.985611e-03	-1.485345e-03	-1.354255e-03	-1.868413e-03	-2.332898e-03	-3.101833e-03	-2.660166e-03	-2.550906e-03	-2.217698e-03	-2.105777e-03	-1.742802e-03	-1.618305e-03	-1.215367e-03	-1.078284e-03	-6.469750e-04	-5.041380e-04	1.855490e-04	3.051052e-04	-3.591621e-04	-2.166492e-04	7.830873e-04	8.781121e-04	9.789483e-04	1.089854e-03	6.800857e-03	4.864244e-03	5.367417e-03	1.697734e-03	1.661590e-03	1.214876e-03	1.265326e-03	-4.143686e-04	5.867319e-03	2.362777e-03	2.595443e-03	3.867011e-04	4.118758e-04	7.210151e-04	5.534430e-04	-3.601008e-03	-3.469702e-03	1.604031e-03	1.655523e-03	-1.271743e-03	-2.898958e-03	8.083767e-04	-2.529507e-03	8.271595e-04	6.913534e-04	1.550450e-03	1.129930e-03	1.489053e-03	-5.832231e-03	-5.405329e-03	-4.015872e-03	-7.445880e-05	-6.292722e-03	-1.187710e-02	-1.106072e-02	5.272018e-03	-1.482991e-03	-1.868265e-03	-1.914848e-03	-1.784884e-04	1.526483e-03	3.379687e-03	3.489415e-04	9.759056e-03	-2.697451e-03	1.593089e-03	-2.841814e-03	1.602938e-03	-2.089367e-03	1.425487e-03	-2.509688e-03	7.493219e-04	1.432240e-03	1.571658e-03	3.809434e-03	-2.308908e-03	-4.731185e-03	6.939890e-04	-3.667434e-03	-5.215664e-04	-6.911638e-03	7.921954e-04	1.008674e-03	1.044278e-03	1.770781e-03	3.335471e-03	-1.190349e-02	-2.691129e-03	-1.113165e-03	5.594591e-03	-1.536935e-03	1.901277e-03	-2.936821e-04	-2.105444e-03	3.275525e-04	9.335968e-04	-1.647303e-03	3.956886e-03	-2.238086e-03	-1.765189e-03	-6.704546e-04	-5.044022e-03	-3.832608e-03	-2.783161e-03	-2.673892e-03	9.681966e-04	9.625968e-04	1.201690e-03	2.477636e-03	1.510691e-03	1.545933e-03	5.228432e-04	5.279208e-03	1.898320e-03	-4.458162e-03	-7.791858e-03	1.733193e-03	-7.705716e-04	-2.840731e-03	-2.349518e-03	-1.435747e-03	8.422463e-03	9.719914e-03	2.040862e-03	2.996865e-03	2.153250e-04	9.034185e-04	1.141913e-03	1.462642e-03	1.443561e-03	1.424739e-03	1.430881e-03	-5.582871e-04	-4.204981e-04	1.440885e-03	1.462075e-03	1.699243e-03	1.788463e-03	2.683604e-03	1.588573e-03	1.576296e-03	4.403367e-03	9.686854e-04	1.002795e-03	8.487847e-04	8.756358e-04	-1.236270e-03	1.572369e-03	1.627745e-03	1.917824e-04	2.627998e-04	1.179004e-03	1.227378e-03	2.212317e-03	2.425117e-03	1.610147e-03	1.606358e-03	-7.266589e-05	2.432865e-05	1.130833e-04	1.279093e-03	1.328661e-03	-1.048321e-03	-8.717608e-04	-7.073642e-04	7.662783e-04	7.865430e-04	8.047787e-04	3.848049e-04	4.361090e-04	4.831464e-04	5.606605e-04	5.913773e-04	7.124025e-04	7.298756e-04	6.218634e-04	4.243523e-03	8.670616e-04	9.208438e-04	-4.223522e-03	9.519891e-04	9.811908e-04	1.037214e-03	1.278051e-03	-3.129493e-03	3.615578e-03	3.923100e-03	1.064916e-03	1.134065e-03	2.030909e-03	2.168652e-03	2.317511e-03	-1.243446e-03	-3.010469e-03	-2.891804e-03	-2.568091e-03	-2.456964e-03	-2.348868e-03	-2.116942e-03	-2.007752e-03	-1.889590e-03	-1.641759e-03	-1.512524e-03	-1.380213e-03	-1.104522e-03	-9.622340e-04	-8.170946e-04	-3.731472e-04	4.728373e-04	5.884311e-04	-2.239115e-04	-7.648908e-05	6.781425e-05	1.276651e-03	1.358072e-03	1.445879e-03	1.544784e-03	1.651489e-03	4.571333e-03	4.897042e-03	1.530601e-03	1.507578e-03	1.482259e-03	1.041058e-03	1.086428e-03	5.206792e-03	5.466554e-03	2.656611e-03	2.855904e-03	3.082648e-03	9.474456e-04	1.351695e-03	1.302752e-03	1.167266e-03	-3.520655e-03	-3.382701e-03	-3.256146e-03	1.379632e-03	1.426247e-03	1.472027e-03	6.468800e-04	6.715969e-04	-2.516096e-03	-2.470065e-04	-6.235693e-03	-4.568465e-03	1.035389e-03	-1.893972e-03	5.564621e-03	1.378732e-03	1.423923e-03	-1.366132e-03	-5.476641e-03	9.655967e-04	-2.636607e-03	4.219937e-03	-2.451427e-03	-3.731783e-03	-5.802371e-03	-1.128908e-03	-3.257248e-04	-6.551524e-04	-5.739943e-03	2.796844e-03	1.394019e-03	2.198069e-04	-1.741931e-03	7.233666e-04	-3.510974e-04	8.025822e-04	5.742454e-04	-4.838943e-03	5.487094e-04	-3.569948e-03	-3.423717e-03	-1.573752e-03	2.238271e-03	1.422454e-03	2.740395e-03	3.726085e-03	1.303251e-03	-8.086264e-03	-5.141572e-03	3.649708e-03	1.934947e-03	-1.933262e-03	1.417343e-03	-2.577560e-03	1.411933e-03	1.440839e-03	-2.120792e-03	3.018398e-03	-2.298116e-03	-2.056667e-03	8.811516e-04	1.405224e-03	-1.538405e-03	3.198317e-03	-4.664878e-04	-2.585651e-03	1.490825e-03	1.361659e-03	1.378784e-03	1.369744e-03	1.378040e-03	-4.322497e-03	1.627915e-03	1.753457e-04	-2.659106e-03	-2.402354e-03	-1.547339e-03	1.805894e-03	2.489101e-03	4.102020e-04	1.321489e-03	1.306533e-03	1.299155e-03	1.304263e-03	-5.890907e-04	-4.652921e-04	1.310542e-03	1.326681e-03	1.352844e-03	1.608201e-03	1.697455e-03	1.428029e-03	1.396210e-03	3.283699e-03	8.371448e-04	8.726901e-04	7.447237e-04	7.752185e-04	1.475318e-03	1.534019e-03	9.320122e-05	1.550186e-04	1.066611e-03	2.089815e-03	2.274817e-03	1.433249e-03	1.420150e-03	-1.497406e-04	-6.351100e-05	2.170087e-05	1.124510e-03	1.155548e-03	-1.192804e-03	-1.025881e-03	-8.664265e-04	-7.219600e-04	6.347510e-04	6.564949e-04	6.761355e-04	6.995748e-04	2.697415e-04	3.216602e-04	3.630293e-04	4.046472e-04	4.378691e-04	6.159012e-04	5.939953e-04	4.718244e-04	1.035541e-03	-4.104297e-03	-3.908858e-03	1.076580e-03	1.110364e-03	1.148658e-03	1.214366e-03	1.324521e-03	3.948280e-03	4.153543e-03	1.495894e-03	1.568159e-03	2.367167e-03	2.492003e-03	2.626370e-03	2.769837e-03	-2.908935e-03	-2.796810e-03	-2.687469e-03	-2.480023e-03	-2.375353e-03	-2.266159e-03	-2.160312e-03	-1.933504e-03	-1.816295e-03	-1.711647e-03	-1.457826e-03	-1.314755e-03	-1.191813e-03	-1.043163e-03	-9.134789e-04	-7.598453e-04	-6.231143e-04	7.753852e-04	6.558631e-04	-1.699945e-04	-2.760468e-05	1.265581e-04	2.706836e-04	1.647962e-03	1.724998e-03	1.811315e-03	1.903665e-03	2.005042e-03	2.118621e-03	4.338434e-03	4.503966e-03	1.368771e-03	1.346495e-03	1.334305e-03	9.026735e-04	9.524905e-04	9.818954e-04	4.642397e-03	4.714182e-03	4.636411e-03	2.926635e-03	3.100329e-03	3.299083e-03	3.510346e-03	1.492102e-03	1.640607e-03	1.666437e-03	1.599247e-03	-3.028817e-03	-3.283844e-03	-3.158698e-03	1.214767e-03	1.242287e-03	1.299222e-03	1.319268e-03	4.996735e-04	5.279914e-04	5.502612e-04	-1.938981e-03	-5.596787e-03	1.676492e-03	-8.777337e-03	-2.093540e-03	1.280055e-03	-3.008535e-04	-2.228348e-03	-4.143257e-03	-2.416886e-03	-1.446245e-03	1.279874e-04	2.598909e-03	2.539503e-03	-5.323594e-04	-1.852787e-03	-2.125387e-03	-2.210513e-03	-2.122320e-03	-2.494986e-03	3.009814e-03	1.787772e-03	1.785747e-03	2.388195e-03	1.332183e-03	1.261621e-03	6.370123e-04	-5.046372e-03	-2.843587e-03	-3.184022e-03	7.289723e-04	9.312221e-04	-2.364686e-04	-1.342651e-03	1.071450e-03	9.199306e-04	1.854457e-03	-4.816384e-03	-3.956788e-04	-9.147817e-03	-4.349894e-03	-2.260612e-03	5.961176e-03	6.602343e-03	1.300085e-03	-1.294844e-03	-2.485798e-03	3.375131e-03	-2.328994e-03	-3.458298e-03	-1.074426e-03	-3.221622e-03	-2.023785e-04	-1.780934e-03	5.109614e-04	4.783277e-04	-4.566482e-03	5.521250e-04	-3.319377e-03	2.202786e-03	1.252538e-03	-1.494828e-03	1.673540e-03	1.651645e-03	1.631730e-03	1.210844e-03	1.396086e-03	2.786921e-04	-2.408764e-03	-1.612689e-03	1.204815e-03	1.210363e-03	1.198426e-03	1.208999e-03	-5.004839e-04	-6.109545e-04	1.203264e-03	1.221882e-03	1.232629e-03	1.252585e-03	1.501787e-03	1.582567e-03	1.275064e-03	2.546430e-03	7.303133e-04	7.548104e-04	6.712351e-04	6.894173e-04	1.377457e-03	1.433627e-03	1.029484e-05	8.198836e-05	1.911299e-03	2.051578e-03	1.272962e-03	-2.122257e-04	-1.209496e-04	-5.370355e-05	9.981037e-04	-1.144132e-03	-9.947434e-04	-8.565005e-04	-7.297544e-04	5.224898e-04	5.538522e-04	5.657203e-04	5.986678e-04	6.155227e-04	1.905244e-04	2.253997e-04	2.792900e-04	3.056467e-04	3.517462e-04	-3.951300e-03	-3.773709e-03	-3.610740e-03	1.130909e-03	1.171179e-03	1.207900e-03	1.249806e-03	1.306467e-03	3.931012e-03	4.031472e-03	1.697532e-03	1.760728e-03	2.697989e-03	2.828477e-03	2.976557e-03	-2.718651e-03	-2.625041e-03	-2.514761e-03	-2.426836e-03	-2.311645e-03	-2.216109e-03	-2.098800e-03	-1.943462e-03	-1.760850e-03	-1.589505e-03	-1.078632e-03	-8.067076e-04	-5.247732e-04	5.388117e-05	3.349130e-04	1.857322e-03	1.934211e-03	2.039176e-03	2.119830e-03	2.224438e-03	2.343919e-03	2.460991e-03	4.090625e-03	4.124623e-03	1.231688e-03	1.232274e-03	1.218399e-03	7.861043e-04	8.456926e-04	4.126398e-03	4.051331e-03	3.835401e-03	3.124020e-03	3.279523e-03	3.452981e-03	3.626250e-03	3.784793e-03	1.413143e-03	1.604414e-03	1.741864e-03	1.861186e-03	-3.061102e-03	-2.948414e-03	1.076730e-03	1.149854e-03	3.732336e-04	4.142272e-04	4.299614e-04	4.652406e-04	6.762989e-03	-9.213926e-03	-2.015269e-03	-2.090139e-03	1.998480e-03	1.587364e-03	-4.270280e-03	-1.419931e-03	-3.323140e-03	2.907572e-03	1.764960e-03	-2.389878e-03	-1.348180e-03	-1.894585e-03	1.946228e-03	-5.363410e-03	1.142050e-03	-9.911700e-04	-1.765067e-03	1.508083e-03	7.689221e-04	-4.083092e-03	4.176029e-04	1.232559e-03	1.188035e-03	9.734023e-04	-3.397697e-04	8.705403e-05	-2.266366e-03	5.824480e-04	-5.216056e-04	-4.283684e-04	2.868053e-03	-3.757194e-03	-2.709948e-03	-1.769141e-03	2.004978e-03	1.435702e-03	-8.649277e-03	-3.913647e-03	-2.179330e-03	-2.383634e-03	1.874855e-03	1.128727e-03	1.031783e-03	1.153514e-03	-4.481522e-03	-1.780612e-03	-5.559561e-03	-2.331938e-03	6.018525e-03	-1.219948e-03	-2.158917e-03	-2.099447e-03	6.739813e-04	-1.483970e-03	-3.198326e-03	-3.081348e-03	8.597511e-04	1.900981e-03	1.826142e-03	1.111670e-03	2.835332e-04	-4.352267e-04	-1.630569e-03	1.109128e-03	1.113599e-03	-6.244490e-04	1.129941e-03	1.143169e-03	1.371666e-03	2.007160e-03	6.376127e-04	1.269223e-03	1.316576e-03	-1.763083e-05	1.671030e-03	1.128283e-03	1.127504e-03	-2.124906e-04	-1.160820e-04	8.363758e-04	-1.087025e-03	-9.529217e-04	-8.362327e-04	-7.296015e-04	4.627995e-04	5.102954e-04	5.390630e-04	1.748410e-04	2.499856e-04	-3.604270e-03	-3.459572e-03	1.237004e-03	1.329213e-03	3.831323e-03	1.900266e-03	3.060750e-03	-1.556487e-03	-2.508143e-03	-2.306416e-03	-2.099290e-03	-1.900616e-03	-1.726111e-03	-1.349573e-03	-1.101738e-03	-8.426456e-04	-5.777958e-04	-3.049216e-04	-2.788823e-05	2.443641e-04	4.837645e-04	2.080139e-03	2.274857e-03	2.455135e-03	2.565624e-03	2.700898e-03	3.786874e-03	3.724109e-03	1.119063e-03	1.121311e-03	1.106345e-03	6.735966e-04	7.099908e-04	3.632741e-03	3.462552e-03	3.159965e-03	2.692689e-03	3.214896e-03	3.360453e-03	3.507901e-03	3.645474e-03	3.744469e-03	3.851451e-03	1.517603e-03	1.762752e-03	-2.986468e-03	-2.858847e-03	9.064310e-04	1.032638e-03	1.079297e-03	3.147512e-04	3.691461e-04	-4.582865e-03	5.293153e-03	5.260152e-03	-5.979942e-03	-8.603028e-04	-4.060919e-03	-3.613905e-03	2.470800e-03	-1.891309e-03	-1.601250e-03	3.304663e-03	2.042166e-03	2.285154e-04	-1.675939e-03	-2.330155e-03	-3.279096e-03	1.008205e-03	1.770987e-03	-5.103140e-03	1.033099e-03	-1.361312e-03	3.592200e-03	9.009436e-04	-1.813535e-03	4.785463e-04	1.120110e-03	8.998056e-04	7.192162e-04	1.302315e-03	1.352452e-03	-1.251563e-03	-1.140193e-03	-6.863524e-03	-3.680003e-03	-3.832501e-03	-3.054763e-03	2.002965e-03	5.597554e-04	9.814403e-04	-6.242024e-04	-7.871743e-03	-7.951116e-03	-2.216125e-03	1.254582e-03	-3.163289e-03	1.470644e-04	1.413494e-03	-1.327825e-03	-1.707506e-03	6.599902e-04	-2.201842e-03	-5.396038e-04	-4.549846e-04	-3.538981e-03	-2.024290e-03	1.213922e-03	1.476400e-03	1.000947e-03	-2.331023e-03	3.789606e-03	-7.198239e-04	-2.001409e-03	-1.922469e-03	9.187121e-04	-1.484604e-03	-2.953981e-03	7.428019e-04	1.984084e-03	3.508286e-04	-3.810321e-04	-9.004876e-04	9.983378e-04	1.013049e-03	1.058305e-03	1.094112e-03	1.610778e-03	5.265042e-04	1.146625e-03	1.177354e-03	4.424680e-04	9.994208e-04	9.977896e-04	1.009788e-03	-3.583264e-04	-2.506837e-04	-1.640849e-04	-1.017171e-03	3.489732e-04	3.985147e-04	-6.791093e-05	2.677484e-05	9.468676e-04	-3.405893e-03	1.072817e-03	1.182004e-03	3.048953e-03	-2.464016e-03	-2.262523e-03	-1.527695e-03	-2.057481e-03	-1.863773e-03	-1.689654e-03	-1.352823e-03	-1.143090e-03	-9.074146e-04	-6.618345e-04	-4.098962e-04	-1.506631e-04	1.088787e-04	1.982094e-03	2.078010e-03	2.270512e-03	2.473809e-03	2.662628e-03	2.869047e-03	3.429659e-03	3.296709e-03	1.006080e-03	9.937657e-04	5.754791e-04	6.132305e-04	3.149467e-03	2.932831e-03	2.594764e-03	2.138680e-03	1.567267e-03	3.204367e-03	3