# vtk DataFile Version 3.0
vtk output
ASCII
DATASET UNSTRUCTURED_GRID
POINTS 5233 float
9.997500e-01	-3.632909e-05	0.0	9.990000e-01	-1.452618e-04	0.0	9.977600e-01	-3.252008e-04	0.0	9.960200e-01	-5.774943e-04	0.0	9.937800e-01	-9.022942e-04	0.0	9.910500e-01	-1.298763e-03	0.0	9.878400e-01	-1.766726e-03	0.0	9.841300e-01	-2.311194e-03	0.0	9.799500e-01	-2.930640e-03	0.0	9.752800e-01	-3.631444e-03	0.0	9.701500e-01	-4.412625e-03	0.0	9.645400e-01	-5.280292e-03	0.0	9.584700e-01	-6.233365e-03	0.0	9.519400e-01	-7.272227e-03	0.0	9.449600e-01	-8.393908e-03	0.0	9.375400e-01	-9.593773e-03	0.0	9.296900e-01	-1.086609e-02	0.0	9.214000e-01	-1.220804e-02	0.0	9.127000e-01	-1.361074e-02	0.0	9.035800e-01	-1.507272e-02	0.0	8.940600e-01	-1.658877e-02	0.0	8.841500e-01	-1.815610e-02	0.0	8.738500e-01	-1.977361e-02	0.0	8.631800e-01	-2.143627e-02	0.0	8.521600e-01	-2.313752e-02	0.0	8.407700e-01	-2.487471e-02	0.0	8.290500e-01	-2.663345e-02	0.0	8.170100e-01	-2.840162e-02	0.0	8.046400e-01	-3.016792e-02	0.0	7.919700e-01	-3.191393e-02	0.0	7.790100e-01	-3.362378e-02	0.0	7.657800e-01	-3.528073e-02	0.0	7.522800e-01	-3.687177e-02	0.0	7.385200e-01	-3.838440e-02	0.0	7.245300e-01	-3.980643e-02	0.0	7.103200e-01	-4.113073e-02	0.0	6.958900e-01	-4.235375e-02	0.0	6.812700e-01	-4.347212e-02	0.0	6.664700e-01	-4.448693e-02	0.0	6.515000e-01	-4.540154e-02	0.0	6.363800e-01	-4.622067e-02	0.0	6.211300e-01	-4.695082e-02	0.0	6.057600e-01	-4.760016e-02	0.0	5.902800e-01	-4.817747e-02	0.0	5.747100e-01	-4.869148e-02	0.0	5.590600e-01	-4.915119e-02	0.0	5.433600e-01	-4.956464e-02	0.0	5.276100e-01	-4.993996e-02	0.0	5.118400e-01	-5.028359e-02	0.0	4.960500e-01	-5.060149e-02	0.0	4.802700e-01	-5.089775e-02	0.0	4.645100e-01	-5.117554e-02	0.0	4.487800e-01	-5.143670e-02	0.0	4.331100e-01	-5.168146e-02	0.0	4.175000e-01	-5.190932e-02	0.0	4.019700e-01	-5.211839e-02	0.0	3.865400e-01	-5.230586e-02	0.0	3.712300e-01	-5.246816e-02	0.0	3.560400e-01	-5.260130e-02	0.0	3.409900e-01	-5.270061e-02	0.0	3.261100e-01	-5.276113e-02	0.0	3.114000e-01	-5.277790e-02	0.0	2.968700e-01	-5.274582e-02	0.0	2.825500e-01	-5.265996e-02	0.0	2.684500e-01	-5.251559e-02	0.0	2.545700e-01	-5.230801e-02	0.0	2.409400e-01	-5.203324e-02	0.0	2.275700e-01	-5.168749e-02	0.0	2.144700e-01	-5.126729e-02	0.0	2.016600e-01	-5.076993e-02	0.0	1.891400e-01	-5.019238e-02	0.0	1.769300e-01	-4.953284e-02	0.0	1.650400e-01	-4.878952e-02	0.0	1.534900e-01	-4.796177e-02	0.0	1.422900e-01	-4.704883e-02	0.0	1.314400e-01	-4.604934e-02	0.0	1.209500e-01	-4.496296e-02	0.0	1.108500e-01	-4.379208e-02	0.0	1.011300e-01	-4.253503e-02	0.0	9.181000e-02	-4.119389e-02	0.0	8.290000e-02	-3.976997e-02	0.0	7.440000e-02	-3.826304e-02	0.0	6.633000e-02	-3.667657e-02	0.0	5.869000e-02	-3.501058e-02	0.0	5.149000e-02	-3.326708e-02	0.0	4.474000e-02	-3.144844e-02	0.0	3.844000e-02	-2.955433e-02	0.0	3.260000e-02	-2.758711e-02	0.0	2.723000e-02	-2.554977e-02	0.0	2.232000e-02	-2.343708e-02	0.0	1.790000e-02	-2.126113e-02	0.0	1.395000e-02	-1.901092e-02	0.0	1.049000e-02	-1.669561e-02	0.0	7.520000e-03	-1.431461e-02	0.0	5.040000e-03	-1.186637e-02	0.0	3.050000e-03	-9.347302e-03	0.0	1.560000e-03	-6.769269e-03	0.0	5.600000e-04	-4.108233e-03	0.0	6.000000e-05	-1.363608e-03	0.0	0.000000e+00	0.000000e+00	0.0	6.000000e-05	1.350236e-03	0.0	5.600000e-04	4.050826e-03	0.0	1.560000e-03	6.663226e-03	0.0	3.050000e-03	9.195473e-03	0.0	5.040000e-03	1.167583e-02	0.0	7.520000e-03	1.409653e-02	0.0	1.049000e-02	1.646478e-02	0.0	1.395000e-02	1.878581e-02	0.0	1.790000e-02	2.106403e-02	0.0	2.232000e-02	2.329392e-02	0.0	2.723000e-02	2.549065e-02	0.0	3.260000e-02	2.764558e-02	0.0	3.844000e-02	2.976800e-02	0.0	4.474000e-02	3.185849e-02	0.0	5.149000e-02	3.391797e-02	0.0	5.869000e-02	3.595015e-02	0.0	6.633000e-02	3.795531e-02	0.0	7.440000e-02	3.993367e-02	0.0	8.290000e-02	4.188739e-02	0.0	9.181000e-02	4.381361e-02	0.0	1.011300e-01	4.571359e-02	0.0	1.108500e-01	4.758588e-02	0.0	1.209500e-01	4.942683e-02	0.0	1.314400e-01	5.123782e-02	0.0	1.422900e-01	5.301272e-02	0.0	1.534900e-01	5.474871e-02	0.0	1.650400e-01	5.644398e-02	0.0	1.769300e-01	5.809472e-02	0.0	1.891400e-01	5.969553e-02	0.0	2.016600e-01	6.124223e-02	0.0	2.144700e-01	6.272926e-02	0.0	2.275700e-01	6.415328e-02	0.0	2.409400e-01	6.550849e-02	0.0	2.545700e-01	6.679020e-02	0.0	2.684500e-01	6.799357e-02	0.0	2.825500e-01	6.911218e-02	0.0	2.968700e-01	7.014214e-02	0.0	3.114000e-01	7.107860e-02	0.0	3.261100e-01	7.191555e-02	0.0	3.409900e-01	7.264840e-02	0.0	3.560400e-01	7.327286e-02	0.0	3.712300e-01	7.378330e-02	0.0	3.865400e-01	7.417483e-02	0.0	4.019700e-01	7.444303e-02	0.0	4.175000e-01	7.458295e-02	0.0	4.331100e-01	7.458992e-02	0.0	4.487800e-01	7.445955e-02	0.0	4.645100e-01	7.418745e-02	0.0	4.802700e-01	7.376991e-02	0.0	4.960500e-01	7.320341e-02	0.0	5.118400e-01	7.248482e-02	0.0	5.276100e-01	7.161270e-02	0.0	5.433600e-01	7.058503e-02	0.0	5.590600e-01	6.940265e-02	0.0	5.747100e-01	6.806549e-02	0.0	5.902800e-01	6.657731e-02	0.0	6.057600e-01	6.494175e-02	0.0	6.211300e-01	6.316504e-02	0.0	6.363800e-01	6.125402e-02	0.0	6.515000e-01	5.921698e-02	0.0	6.664700e-01	5.706516e-02	0.0	6.812700e-01	5.481151e-02	0.0	6.958900e-01	5.246892e-02	0.0	7.103200e-01	5.005129e-02	0.0	7.245300e-01	4.757686e-02	0.0	7.385200e-01	4.505941e-02	0.0	7.522800e-01	4.251466e-02	0.0	7.657800e-01	3.996213e-02	0.0	7.790100e-01	3.741749e-02	0.0	7.919700e-01	3.489399e-02	0.0	8.046400e-01	3.240819e-02	0.0	8.170100e-01	2.997405e-02	0.0	8.290500e-01	2.760884e-02	0.0	8.407700e-01	2.532127e-02	0.0	8.521600e-01	2.312328e-02	0.0	8.631800e-01	2.103157e-02	0.0	8.738500e-01	1.905016e-02	0.0	8.841500e-01	1.718895e-02	0.0	8.940600e-01	1.545535e-02	0.0	9.035800e-01	1.385019e-02	0.0	9.127000e-01	1.237271e-02	0.0	9.214000e-01	1.102010e-02	0.0	9.296900e-01	9.781662e-03	0.0	9.375400e-01	8.650401e-03	0.0	9.449600e-01	7.612208e-03	0.0	9.519400e-01	6.656126e-03	0.0	9.584700e-01	5.772587e-03	0.0	9.645400e-01	4.954359e-03	0.0	9.701500e-01	4.195689e-03	0.0	9.752800e-01	3.496291e-03	0.0	9.799500e-01	2.852720e-03	0.0	9.841300e-01	2.270023e-03	0.0	9.878400e-01	1.747228e-03	0.0	9.910500e-01	1.290667e-03	0.0	9.937800e-01	8.994899e-04	0.0	9.960200e-01	5.767420e-04	0.0	9.977600e-01	3.250644e-04	0.0	9.990000e-01	1.452495e-04	0.0	9.997500e-01	3.632890e-05	0.0	1.000000e+00	0.000000e+00	0.0	1.984229e+01	2.506660e+00	0.0	1.937166e+01	4.973800e+00	0.0	1.859553e+01	7.362490e+00	0.0	1.752613e+01	9.635070e+00	0.0	1.618034e+01	1.175571e+01	0.0	1.457937e+01	1.369094e+01	0.0	1.274848e+01	1.541027e+01	0.0	1.071654e+01	1.688656e+01	0.0	8.515590e+00	1.809654e+01	0.0	6.180340e+00	1.902113e+01	0.0	3.747630e+00	1.964575e+01	0.0	1.255810e+00	1.996053e+01	0.0	-1.255810e+00	1.996053e+01	0.0	-3.747630e+00	1.964574e+01	0.0	-6.180340e+00	1.902113e+01	0.0	-8.515590e+00	1.809654e+01	0.0	-1.071654e+01	1.688656e+01	0.0	-1.274848e+01	1.541026e+01	0.0	-1.457937e+01	1.369094e+01	0.0	-1.618034e+01	1.175570e+01	0.0	-1.752613e+01	9.635070e+00	0.0	-1.859553e+01	7.362490e+00	0.0	-1.937166e+01	4.973800e+00	0.0	-1.984229e+01	2.506660e+00	0.0	-2.000000e+01	0.000000e+00	0.0	-1.984229e+01	-2.506670e+00	0.0	-1.937166e+01	-4.973800e+00	0.0	-1.859553e+01	-7.362490e+00	0.0	-1.752613e+01	-9.635080e+00	0.0	-1.618034e+01	-1.175571e+01	0.0	-1.457937e+01	-1.369094e+01	0.0	-1.274848e+01	-1.541027e+01	0.0	-1.071653e+01	-1.688656e+01	0.0	-8.515580e+00	-1.809654e+01	0.0	-6.180340e+00	-1.902113e+01	0.0	-3.747620e+00	-1.964575e+01	0.0	-1.255810e+00	-1.996053e+01	0.0	1.255810e+00	-1.996053e+01	0.0	3.747630e+00	-1.964574e+01	0.0	6.180340e+00	-1.902113e+01	0.0	8.515590e+00	-1.809654e+01	0.0	1.071654e+01	-1.688656e+01	0.0	1.274848e+01	-1.541026e+01	0.0	1.457937e+01	-1.369094e+01	0.0	1.618034e+01	-1.175570e+01	0.0	1.752614e+01	-9.635070e+00	0.0	1.859553e+01	-7.362490e+00	0.0	1.937166e+01	-4.973790e+00	0.0	1.984229e+01	-2.506660e+00	0.0	2.000000e+01	0.000000e+00	0.0	6.093892e-02	-4.285144e-02	0.0	6.600410e-01	-5.844939e-02	0.0	4.255297e-01	8.863687e-02	0.0	6.904536e-01	6.677179e-02	0.0	3.791252e-01	-6.656260e-02	0.0	9.994589e-01	-7.258723e-04	0.0	9.985402e-01	-1.320872e-03	0.0	7.738251e-01	-4.634860e-02	0.0	6.897588e-01	-5.606349e-02	0.0	-1.367138e-03	6.233161e-03	0.0	7.467650e-01	-4.997311e-02	0.0	5.838090e-01	8.122916e-02	0.0	9.927651e-01	-3.598793e-03	0.0	9.898616e-01	-4.480982e-03	0.0	5.994275e-01	7.958836e-02	0.0	7.187102e-01	-5.322760e-02	0.0	-1.548094e-03	7.305687e-04	0.0	9.864673e-01	-5.441292e-03	0.0	9.825916e-01	-6.470515e-03	0.0	-1.358171e-03	-6.336027e-03	0.0	6.449375e-01	-5.947833e-02	0.0	8.244939e-01	-3.842106e-02	0.0	7.997632e-01	-4.246746e-02	0.0	3.482204e-01	8.660152e-02	0.0	8.478910e-01	-3.434813e-02	0.0	2.468390e-01	7.862192e-02	0.0	8.698983e-01	-3.032503e-02	0.0	1.001408e-02	2.079824e-02	0.0	8.904116e-01	-2.642047e-02	0.0	7.722818e-02	-4.682321e-02	0.0	9.093595e-01	-2.267674e-02	0.0	-1.865007e-03	-3.138557e-03	0.0	9.422484e-01	-1.580904e-02	0.0	9.266631e-01	-1.912583e-02	0.0	1.806769e-02	-2.637803e-02	0.0	4.256782e-01	-6.623083e-02	0.0	8.590773e-01	-3.232303e-02	0.0	9.560748e-01	-1.276843e-02	0.0	9.782290e-01	-7.589010e-03	0.0	9.680882e-01	-1.002215e-02	0.0	1.584746e-01	-5.900398e-02	0.0	9.000881e-01	-2.452666e-02	0.0	7.604299e-01	-4.820093e-02	0.0	9.971132e-01	-2.058079e-03	0.0	5.988429e-01	-6.197001e-02	0.0	4.413590e-01	-6.604490e-02	0.0	5.361230e-01	-6.418097e-02	0.0	4.728882e-01	-6.557080e-02	0.0	5.045102e-01	-6.495629e-02	0.0	4.886866e-01	-6.528085e-02	0.0	1.251652e-01	-5.514410e-02	0.0	2.799454e-02	-3.148915e-02	0.0	3.945492e-01	-6.649285e-02	0.0	4.640172e-02	-3.855324e-02	0.0	4.100682e-01	-6.638196e-02	0.0	3.187978e-01	-6.636792e-02	0.0	3.486567e-01	-6.657206e-02	0.0	3.367005e-02	-3.391128e-02	0.0	2.896281e-01	-6.592628e-02	0.0	9.346743e-01	-1.743395e-02	0.0	1.470184e-01	-5.780948e-02	0.0	1.948400e-01	-6.200962e-02	0.0	8.600599e-02	-4.867547e-02	0.0	1.048018e-01	-5.210645e-02	0.0	5.676108e-01	-6.321237e-02	0.0	1.702734e-01	-6.010386e-02	0.0	6.143295e-01	-6.122907e-02	0.0	8.803501e-01	-2.835590e-02	0.0	2.280418e-02	-2.897635e-02	0.0	9.951875e-01	-2.803889e-03	0.0	6.796488e-03	-1.820110e-02	0.0	1.798544e-02	2.626178e-02	0.0	9.182203e-01	-2.087471e-02	0.0	9.49388
[...]
POINT_DATA 5233

SCALARS Conservative_1 float 1
LOOKUP_TABLE default
4.315699e-01	2.182979e-01	1.792981e-01	1.498315e-01	1.305664e-01	1.157831e-01	1.039942e-01	9.441777e-02	8.655536e-02	8.003065e-02	7.456379e-02	6.995599e-02	6.602533e-02	6.266348e-02	5.976031e-02	5.723953e-02	5.503688e-02	5.297809e-02	5.104317e-02	4.927918e-02	4.785384e-02	4.665648e-02	4.567539e-02	4.487996e-02	4.418732e-02	4.366280e-02	4.318648e-02	4.284164e-02	4.249931e-02	4.220420e-02	4.192469e-02	4.156286e-02	4.123641e-02	4.074663e-02	4.026176e-02	3.962077e-02	3.897771e-02	3.819113e-02	3.742303e-02	3.653759e-02	3.569658e-02	3.477092e-02	3.391604e-02	3.300579e-02	3.218236e-02	3.133448e-02	3.057136e-02	2.981702e-02	2.912981e-02	2.847481e-02	2.787579e-02	2.730950e-02	2.677319e-02	2.629664e-02	2.582499e-02	2.541910e-02	2.500863e-02	2.465032e-02	2.427959e-02	2.395115e-02	2.360239e-02	2.328839e-02	2.294316e-02	2.262544e-02	2.226948e-02	2.193197e-02	2.155061e-02	2.117876e-02	2.076328e-02	2.033807e-02	1.988118e-02	1.939095e-02	1.888111e-02	1.832321e-02	1.773838e-02	1.711600e-02	1.644197e-02	1.573375e-02	1.497107e-02	1.416393e-02	1.329742e-02	1.237686e-02	1.139350e-02	1.034478e-02	9.223872e-03	8.030268e-03	6.755010e-03	5.396194e-03	3.959417e-03	2.429635e-03	8.638823e-04	-5.794673e-04	-2.471731e-03	-4.862058e-03	-1.900836e-03	6.561282e-03	8.082542e-03	2.386608e-03	-4.961845e-03	-1.181982e-02	-1.815342e-02	-3.200469e-02	-5.243678e-02	-6.924327e-02	-8.475999e-02	-1.081764e-01	-1.351724e-01	-1.534056e-01	-1.610933e-01	-1.638566e-01	-1.652732e-01	-1.657204e-01	-1.648901e-01	-1.625743e-01	-1.592445e-01	-1.554345e-01	-1.516076e-01	-1.480255e-01	-1.449605e-01	-1.424079e-01	-1.403237e-01	-1.388020e-01	-1.378873e-01	-1.375632e-01	-1.374583e-01	-1.372658e-01	-1.368893e-01	-1.363376e-01	-1.356315e-01	-1.347927e-01	-1.336711e-01	-1.324755e-01	-1.312925e-01	-1.303318e-01	-1.295586e-01	-1.284073e-01	-1.264004e-01	-1.229612e-01	-1.176082e-01	-1.086330e-01	-9.653082e-02	-8.575886e-02	-8.132211e-02	-8.210303e-02	-8.469806e-02	-8.686228e-02	-8.827833e-02	-8.915085e-02	-8.956438e-02	-8.960101e-02	-8.916275e-02	-8.846437e-02	-8.739079e-02	-8.612486e-02	-8.471677e-02	-8.307716e-02	-8.145987e-02	-7.964890e-02	-7.782443e-02	-7.597990e-02	-7.406670e-02	-7.225261e-02	-7.037326e-02	-6.865635e-02	-6.690354e-02	-6.534522e-02	-6.378020e-02	-6.243053e-02	-6.109583e-02	-5.998838e-02	-5.891120e-02	-5.807572e-02	-5.726173e-02	-5.671127e-02	-5.627084e-02	-5.602804e-02	-5.601795e-02	-5.622661e-02	-5.678380e-02	-5.761425e-02	-5.898212e-02	-6.066804e-02	-6.263720e-02	-6.481474e-02	-6.741198e-02	-7.035902e-02	-7.375229e-02	-7.754973e-02	-8.185441e-02	-8.672560e-02	-9.233104e-02	-9.883832e-02	-1.065294e-01	-1.157138e-01	-1.268641e-01	-1.406210e-01	-1.615598e-01	-1.811229e-01	-3.462433e-01	3.261804e-02	-1.214895e-04	-1.327913e-04	-1.433043e-04	-1.521796e-04	-1.629655e-04	-1.709188e-04	-1.796065e-04	-1.819701e-04	-1.747700e-04	-1.719972e-04	-1.768042e-04	-1.772735e-04	-1.784631e-04	-1.690002e-04	-1.488726e-04	-1.393634e-04	-1.197518e-04	-1.057991e-04	-9.073703e-05	-7.091357e-05	-4.320689e-05	-2.722528e-05	3.444574e-05	1.857354e-04	1.389421e-04	1.635061e-04	2.263357e-04	2.319459e-04	1.413236e-04	1.751694e-04	2.039400e-04	2.184393e-04	2.299811e-04	2.314058e-04	2.299901e-04	2.177444e-04	1.818705e-04	1.502404e-04	9.083709e-05	6.638507e-05	5.415101e-05	3.258258e-05	1.073295e-05	-1.191274e-05	-3.312590e-05	-5.186633e-05	-6.802706e-05	-8.357543e-05	-9.722218e-05	-1.100463e-04	9.982104e-03	3.274589e-02	-7.362415e-02	-6.194600e-02	2.197461e-02	3.376616e-01	2.422570e-01	3.795390e-02	3.427054e-02	-3.256836e-02	3.687319e-02	-7.099947e-02	1.287744e-01	1.127157e-01	-6.975548e-02	3.566044e-02	-1.381092e-02	1.005687e-01	9.107535e-02	3.974320e-03	3.197287e-02	4.011249e-02	3.898314e-02	-7.813545e-02	4.150895e-02	-1.078653e-01	4.334310e-02	-1.146934e-01	4.585730e-02	1.172379e-02	4.936998e-02	-1.979579e-03	5.786586e-02	5.332641e-02	1.614853e-03	2.305591e-02	4.234938e-02	6.382385e-02	8.342683e-02	7.194720e-02	1.665114e-02	4.748827e-02	3.745410e-02	1.841735e-01	2.957841e-02	2.347988e-02	2.671310e-02	2.440761e-02	2.549006e-02	2.493641e-02	1.512061e-02	4.376578e-03	2.230655e-02	7.967283e-03	2.268007e-02	2.075347e-02	2.134162e-02	5.651932e-03	2.017786e-02	5.547488e-02	1.618165e-02	1.790867e-02	1.250228e-02	1.390413e-02	2.808127e-02	1.710242e-02	3.037999e-02	4.448995e-02	3.033559e-03	1.510699e-01	-3.093532e-03	-1.351295e-01	5.134172e-02	6.062093e-02	7.715469e-02	-4.641814e-02	4.074866e-02	1.927419e-02	2.739033e-02	3.630595e-02	3.847568e-02	1.453571e-02	1.862611e-02	2.883260e-02	3.354107e-02	9.008658e-03	-3.582402e-03	2.517870e-04	2.164195e-02	1.751642e-02	4.579896e-01	1.896509e-02	1.323078e-02	2.045536e-02	1.959102e-02	2.392372e-02	3.500615e-02	-2.046980e-02	6.520790e-03	-7.413212e-02	-8.539051e-03	-1.413774e-01	-1.374172e-01	-1.421435e-01	-1.188459e-01	-7.242379e-02	-1.702556e-01	-7.485941e-02	-7.563354e-02	-8.363426e-02	-7.485585e-02	-5.492914e-02	-7.564404e-02	-7.460415e-02	-7.084552e-02	-6.095964e-02	-5.753712e-02	-1.274359e-01	-8.909012e-02	-7.125164e-02	-6.535105e-02	-1.222295e-01	-1.341194e-01	-1.032772e-01	-1.064856e-01	-1.155815e-01	-9.524450e-02	-7.527250e-02	-7.131852e-02	-1.168446e-01	-1.178789e-01	-6.718721e-02	-1.136773e-01	-1.109459e-01	-6.453318e-02	-7.211090e-02	-5.745920e-02	-5.955765e-02	-5.441231e-02	-5.573120e-02	-5.325669e-02	-5.358567e-02	-5.608144e-02	-5.360687e-02	-6.811248e-02	-5.919040e-02	-7.893996e-02	-5.334378e-02	-5.413119e-02	-5.390470e-02	-5.332151e-02	-5.651948e-02	-5.499202e-02	-6.069308e-02	-5.843953e-02	-6.584368e-02	-6.319743e-02	-7.319368e-02	-6.850495e-02	-1.124392e-01	-1.093668e-01	-1.162991e-01	-1.147226e-01	-1.402750e-01	-1.172953e-01	-1.285582e-01	-1.425182e-01	1.828231e-02	-6.999309e-02	6.755343e-02	3.951188e-02	2.103490e-02	2.608775e-02	-5.692980e-02	-1.389081e-01	-9.207380e-02	-1.245929e-01	-1.307002e-01	-1.051090e-01	-1.202965e-01	-9.557877e-02	-1.034333e-01	-1.003649e-01	-1.133347e-01	-1.262547e-01	-8.724145e-02	-7.245324e-02	-6.302095e-02	-4.008291e-01	-2.163659e-01	-2.897389e-01	3.115579e-02	6.848514e-03	-1.440355e-01	-7.540287e-02	1.728470e-03	-1.058446e-03	1.088345e-02	1.567085e-02	1.987846e-02	-1.106337e-01	-3.006009e-02	-2.061628e-02	1.745498e-02	3.054495e-02	4.820929e-02	-1.363296e-03	-5.928871e-02	2.985608e-02	3.466180e-02	1.069353e-01	1.822237e-02	3.946994e-02	3.761270e-02	1.158708e-02	3.834627e-03	1.615727e-02	1.091549e-03	6.426329e-02	1.451850e-02	3.130266e-02	2.838600e-02	2.070339e-02	1.095650e-02	1.932536e-02	4.456130e-02	3.533814e-02	-7.894820e-02	-1.132617e-01	-5.441114e-02	-4.973567e-02	-1.007552e-01	-5.357937e-02	-9.538266e-02	-5.120445e-02	-1.075286e-01	-5.946809e-02	-6.200435e-02	-6.734803e-02	-5.206334e-02	-1.196741e-01	-7.065912e-02	-9.041492e-02	-8.697596e-02	-6.507992e-02	-8.862831e-02	-1.026553e-01	2.908245e-02	1.585591e-02	-9.608312e-02	-9.700291e-02	-1.189308e-01	-7.892795e-02	-1.356700e-01	-5.308438e-02	1.487026e-02	-1.302345e-01	-1.836112e-01	-1.581314e-01	-6.014649e-02	-3.956787e-02	-2.987624e-03	-6.100522e-03	-1.052101e-02	2.352838e-03	1.516315e-01	9.517056e-03	1.975723e-01	1.404308e-01	-6.175074e-02	2.361499e-02	9.563143e-02	4.174298e-02	-5.857727e-02	1.213329e-01	-6.887159e-04	2.031409e-02	-6.150354e-02	3.846529e-02	-8.107822e-02	4.053329e-02	4.307598e-02	1.026498e-02	4.627635e-02	5.032370e-02	5.757313e-02	4.743130e-03	6.065786e-02	6.847516e-02	8.673085e-02	1.367729e-02	3.329452e-02	3.401216e-02	1.667732e-01	2.110440e-02	2.153275e-02	2.201938e-02	3.578425e-03	1.962211e-02	1.997912e-02	1.846518e-02	6.867603e-03	5.249997e-02	5.487526e-02	1.411182e-02	1.217668e-02	2.424438e-02	2.618888e-02	7.346409e-02	7.943039e-02	3.195454e-02	3.267599e-02	1.271084e-02	1.322533e-02	2.484283e-02	2.554011e-02	7.818571e-03	8.703784e-03	-7.610106e-06	1.874971e-02	1.901615e-02	1.523069e-02	1.555162e-02	1.642122e-02	1.670079e-02	1.771757e-02	1.795260e-02	1.695013e-02	-1.424100e-02	-1.224955e-03	-1.204627e-01	-9.798272e-02	-6.148158e-02	-6.229086e-02	-6.256772e-02	-6.259560e-02	-8.413503e-02	-7.449826e-02	-5.780020e-02	-6.240396e-02	-6.203762e-02	-6.090005e-02	-5.597051e-02	-6.443002e-02	-1.137442e-01	-1.165554e-01	-8.533523e-02	-8.347361e-02	-9.621018e-02	-9.798278e-02	-9.922240e-02	-4.957703e-02	-5.099059e-02	-5.160022e-02	-4.986656e-02	-4.956113e-02	-5.439326e-02	-5.058143e-02	-5.007508e-02	-4.941972e-02	-4.950238e-02	-5.012341e-02	-5.056950e-02	-5.216560e-02	-5.289821e-02	-5.517558e-02	-5.605374e-02	-6.014905e-02	-6.088154e-02	-5.688359e-02	-5.771018e-02	-9.024579e-02	-9.171764e-02	-9.313715e-02	-9.434425e-02	-1.068814e-01	-1.207288e-01	-1.196372e-01	3.606704e-02	3.678170e-02	2.251609e-02	2.307078e-02	-4.753107e-02	-1.172581e-01	-1.048868e-01	-1.075703e-01	-7.199641e-02	-7.741563e-02	-5.940424e-02	-5.802703e-02	-6.194557e-02	-5.971732e-02	2.693383e-02	2.761538e-02	5.842786e-03	3.550646e-03	1.722148e-02	7.815886e-06	1.690422e-02	1.513491e-02	3.187435e-02	2.037658e-02	4.659803e-02	-1.038748e-01	-9.540214e-02	-6.884701e-02	-4.128208e-02	-1.131143e-01	-2.349962e-01	-2.135650e-01	1.519843e-01	5.702072e-03	3.027464e-03	-1.255149e-02	1.056249e-02	4.878557e-02	1.044706e-01	-4.992102e-02	2.569628e-01	-1.510939e-03	2.751597e-02	9.462616e-04	2.821725e-02	1.945687e-03	3.859507e-02	-7.781772e-05	1.584815e-02	3.741398e-02	2.676698e-02	1.155063e-01	8.976203e-04	-8.228811e-02	-5.121147e-02	-6.255541e-02	-4.708808e-02	-1.257381e-01	-5.140676e-02	-6.168899e-02	-4.320863e-02	-7.648748e-02	-9.411172e-02	-2.341088e-01	2.668943e-03	-2.668303e-02	-8.760937e-02	-1.931975e-02	6.361283e-02	1.008504e-02	-8.924159e-03	1.278713e-02	1.822001e-02	4.075015e-03	-6.643267e-02	-4.604918e-02	-4.511057e-02	-4.665849e-02	-8.832765e-02	-6.551109e-02	-4.957045e-02	-4.855781e-02	-4.573704e-02	-5.702866e-02	-6.860716e-02	-8.391955e-02	2.533687e-02	2.606656e-02	1.379625e-02	-7.880530e-02	-7.754056e-02	-7.709436e-02	-1.442014e-01	-5.241533e-02	-3.380671e-02	-1.857635e-03	-4.754582e-03	5.062245e-03	2.300266e-01	2.577644e-01	6.797519e-02	9.447984e-02	-4.933968e-02	1.786616e-02	-5.211532e-02	3.534441e-02	3.630532e-02	3.987538e-02	4.129139e-02	8.953301e-03	9.545034e-03	4.282175e-02	4.463225e-02	5.656902e-02	5.983634e-02	8.614164e-02	3.034498e-02	3.118674e-02	1.305352e-01	1.863283e-02	1.899497e-02	1.717845e-02	1.753035e-02	5.967802e-03	5.115219e-02	5.368251e-02	1.215016e-02	1.247369e-02	2.092845e-02	2.146179e-02	7.304768e-02	7.907540e-02	2.899102e-02	2.971643e-02	1.100867e-02	1.142629e-02	1.181988e-02	2.206871e-02	2.266209e-02	6.815430e-03	7.596466e-03	8.320341e-03	1.606786e-02	1.635517e-02	1.659459e-02	1.305034e-02	1.331359e-02	1.357955e-02	1.405272e-02	1.424702e-02	1.538305e-02	1.558657e-02	1.449599e-02	-9.890647e-02	-5.176622e-02	-5.203239e-02	-7.269263e-02	-5.210991e-02	-5.197261e-02	-5.197778e-02	-5.208801e-02	-5.377660e-02	-9.629979e-02	-9.792699e-02	-6.492067e-02	-6.699643e-02	-7.883662e-02	-8.035265e-02	-8.197410e-02	-4.543491e-02	-5.216798e-02	-5.070217e-02	-4.776628e-02	-4.702146e-02	-4.647759e-02	-4.554930e-02	-4.544198e-02	-4.526949e-02	-4.514061e-02	-4.514829e-02	-4.529131e-02	-4.569946e-02	-4.595413e-02	-4.630902e-02	-4.750960e-02	-5.049287e-02	-5.083511e-02	-4.799232e-02	-4.843028e-02	-4.897384e-02	-6.990665e-02	-7.121346e-02	-7.264382e-02	-7.407982e-02	-7.539975e-02	-9.906649e-02	-9.834387e-02	3.272289e-02	3.356113e-02	3.438610e-02	1.940418e-02	1.992289e-02	-9.660706e-02	-9.331917e-02	-8.611864e-02	-8.869295e-02	-9.145953e-02	-5.118726e-02	-5.107643e-02	-4.843207e-02	-4.501012e-02	-6.000593e-02	-5.768775e-02	-5.567523e-02	2.332120e-02	2.396149e-02	2.465979e-02	1.469812e-02	1.494242e-02	-4.424718e-04	9.511769e-03	-1.101268e-01	-7.826819e-02	1.851436e-02	-1.306578e-02	1.595950e-01	4.488611e-02	4.714621e-02	5.334115e-03	-9.552785e-02	-4.402419e-02	8.958941e-04	-6.426751e-02	2.280194e-05	-6.305150e-02	-1.016479e-01	-2.458265e-02	-4.215022e-02	-3.033837e-02	-9.232278e-02	1.018942e-01	3.005761e-02	1.117229e-02	3.675371e-03	1.487817e-02	9.176994e-03	1.582092e-02	1.313469e-02	-8.335515e-02	-4.338254e-02	-6.023365e-02	-5.775932e-02	-4.143069e-02	-6.055590e-02	-4.599359e-02	8.885846e-02	-7.788991e-02	3.570693e-02	-1.500462e-01	-8.911981e-02	1.135623e-01	6.585032e-02	2.786205e-03	2.472574e-02	-8.686123e-04	2.522408e-02	2.623203e-02	1.861772e-03	9.645337e-02	1.030733e-03	-4.292901e-02	-4.438146e-02	-3.149998e-02	-1.877368e-02	-5.529504e-02	-4.151033e-02	-4.623676e-02	-3.158959e-02	-3.526745e-02	-4.076039e-02	2.331913e-02	2.378720e-02	-7.370471e-02	-4.547651e-02	-3.685938e-02	-1.510589e-04	-3.501177e-03	4.553232e-03	6.177421e-02	8.193947e-02	-4.287173e-02	3.355598e-02	3.451956e-02	3.688572e-02	3.821145e-02	8.344388e-03	8.780540e-03	3.957544e-02	4.116293e-02	4.301009e-02	5.495071e-02	5.815220e-02	2.843194e-02	2.902668e-02	1.038099e-01	1.624445e-02	1.667291e-02	1.511278e-02	1.551108e-02	4.955094e-02	5.207505e-02	1.069072e-02	1.086345e-02	1.882252e-02	7.052012e-02	7.589533e-02	2.681983e-02	2.747801e-02	9.850551e-03	1.011316e-02	1.046824e-02	1.955817e-02	1.991709e-02	6.048705e-03	6.713572e-03	7.339455e-03	7.881299e-03	1.377759e-02	1.404303e-02	1.428045e-02	1.457707e-02	1.131326e-02	1.156552e-02	1.172751e-02	1.195386e-02	1.211214e-02	1.356557e-02	1.332454e-02	1.233096e-02	-4.439641e-02	-6.971336e-02	-6.618859e-02	-4.455393e-02	-4.448660e-02	-4.446648e-02	-4.456979e-02	-4.471181e-02	-7.867716e-02	-7.893645e-02	-4.950394e-02	-5.200151e-02	-6.191784e-02	-6.370118e-02	-6.533009e-02	-6.727126e-02	-4.984559e-02	-4.845195e-02	-4.721627e-02	-4.530778e-02	-4.454381e-02	-4.380343e-02	-4.334250e-02	-4.224584e-02	-4.210269e-02	-4.198401e-02	-4.160450e-02	-4.117454e-02	-4.148453e-02	-4.111946e-02	-4.155158e-02	-4.123774e-02	-4.178071e-02	-4.366352e-02	-4.413032e-02	-4.190485e-02	-4.263214e-02	-4.241040e-02	-4.315871e-02	-5.319823e-02	-5.430530e-02	-5.525878e-02	-5.666206e-02	-5.799414e-02	-5.928322e-02	-7.892723e-02	-7.876328e-02	3.076402e-02	3.158102e-02	3.256374e-02	1.694085e-02	1.758695e-02	1.785361e-02	-7.797970e-02	-7.567773e-02	-7.116506e-02	-6.950834e-02	-7.206529e-02	-7.452513e-02	-7.650417e-02	-4.446295e-02	-4.290807e-02	-3.990554e-02	-3.525101e-02	-5.152438e-02	-5.545215e-02	-5.348472e-02	2.071603e-02	2.112030e-02	2.197379e-02	2.241557e-02	1.250809e-02	1.273458e-02	1.290762e-02	2.765166e-03	-9.641248e-02	5.906636e-02	-1.613318e-01	2.029874e-03	2.402711e-02	8.574931e-03	1.252047e-03	-6.945532e-02	2.730980e-04	4.934741e-03	9.754632e-03	-4.874354e-02	-4.564143e-02	-2.742361e-02	-1.342316e-02	-8.789747e-03	-7.311433e-03	-8.954479e-03	2.358484e-05	9.815914e-02	-2.399227e-02	6.266140e-02	8.106703e-02	4.560920e-02	2.804411e-02	1.320285e-02	-8.559990e-02	-4.829104e-02	-5.326385e-02	-3.895239e-02	-3.900860e-02	-3.786753e-02	-3.843424e-02	-3.878771e-02	1.656967e-02	-2.875426e-02	-8.150983e-02	8.316380e-03	-1.720285e-01	-7.310905e-02	-6.556073e-03	1.740099e-01	1.857782e-01	4.376774e-02	5.510639e-03	-1.340608e-03	-5.199654e-02	4.936854e-04	-5.768787e-02	-2.277568e-02	-3.402357e-02	3.471512e-02	3.520851e-03	1.186516e-02	1.151316e-02	-7.695884e-02	-3.818722e-02	-5.542031e-02	7.561270e-02	2.251157e-02	-1.817282e-02	-2.225902e-02	-2.416222e-02	-3.008473e-02	2.112932e-02	-3.889432e-02	-3.269886e-02	-3.418282e-03	4.243547e-03	3.222696e-02	3.342229e-02	3.442247e-02	3.582006e-02	8.030931e-03	7.740202e-03	3.693556e-02	3.849355e-02	3.982129e-02	4.154624e-02	5.286736e-02	5.582247e-02	2.634587e-02	8.587537e-02	1.435606e-02	1.462815e-02	1.365128e-02	1.381852e-02	4.779915e-02	5.018782e-02	9.362883e-03	9.677918e-03	6.664599e-02	7.099198e-02	2.498618e-02	8.734299e-03	9.098102e-03	9.313075e-03	1.754469e-02	6.036021e-03	6.555382e-03	7.000091e-03	7.416032e-03	1.192904e-02	1.230232e-02	1.238499e-02	1.280857e-02	1.299138e-02	1.004517e-02	1.008328e-02	1.038020e-02	1.041066e-02	1.071346e-02	-6.609026e-02	-6.301663e-02	-6.024123e-02	-3.957290e-02	-3.908444e-02	-3.953486e-02	-3.908062e-02	-3.967050e-02	-6.201793e-02	-6.146990e-02	-3.375008e-02	-3.925139e-02	-5.154343e-02	-5.235095e-02	-5.411283e-02	-4.662308e-02	-4.561605e-02	-4.442132e-02	-4.371136e-02	-4.265771e-02	-4.205979e-02	-4.121725e-02	-4.049290e-02	-3.952039e-02	-3.914120e-02	-3.804020e-02	-3.782971e-02	-3.778315e-02	-3.808489e-02	-3.831087e-02	-4.041052e-02	-4.290020e-02	-4.269180e-02	-4.456665e-02	-4.473930e-02	-4.578341e-02	-4.724415e-02	-6.127006e-02	-6.165796e-02	2.922723e-02	3.035709e-02	3.120828e-02	1.496166e-02	1.568102e-02	-6.185033e-02	-6.048331e-02	-5.706711e-02	-5.626145e-02	-5.858439e-02	-6.062785e-02	-6.179379e-02	-6.207249e-02	-3.918527e-02	-3.913854e-02	-3.706734e-02	-3.354357e-02	-5.135948e-02	-4.975607e-02	1.864409e-02	1.984110e-02	1.076065e-02	1.109123e-02	1.113145e-02	1.146036e-02	1.880810e-01	-1.747150e-01	2.297529e-03	-9.679893e-03	8.428029e-02	5.832876e-02	-7.006960e-02	-1.758752e-02	-5.467453e-02	9.648887e-02	6.463031e-02	-4.134403e-03	5.204956e-03	2.955322e-03	-2.636350e-02	-8.305196e-02	-3.303370e-02	-2.113122e-02	3.556815e-03	5.543389e-02	1.424712e-02	-6.693103e-02	1.040384e-02	4.380582e-02	4.132318e-02	1.719578e-02	7.694379e-03	8.765980e-03	4.449735e-04	1.208901e-02	7.370485e-03	7.577773e-03	-4.298448e-02	-6.161532e-02	-4.586322e-02	-1.400863e-02	-3.755652e-02	5.270118e-02	-1.598247e-01	-6.415247e-02	-7.838491e-03	-2.035263e-03	6.835165e-02	2.240419e-02	-3.445033e-02	-3.514735e-02	-7.372048e-02	-1.474809e-03	-9.494513e-02	-5.463090e-03	1.735377e-01	5.590393e-03	1.463645e-03	1.755876e-03	-3.434824e-02	4.702797e-03	-5.274777e-02	-5.101988e-02	-3.441303e-02	-1.844984e-02	-1.979729e-02	2.110125e-02	-2.874338e-02	-2.477287e-02	4.142301e-03	3.165784e-02	3.403632e-02	7.136881e-03	3.662635e-02	3.862178e-02	5.016752e-02	7.263300e-02	1.274156e-02	4.571715e-02	4.784660e-02	8.469416e-03	6.133387e-02	2.353676e-02	2.503697e-02	8.055986e-03	8.242541e-03	1.511270e-02	5.982509e-03	6.301639e-03	6.676723e-03	6.948714e-03	1.080983e-02	1.131700e-02	1.159223e-02	9.038810e-03	9.337166e-03	-5.914186e-02	-5.682653e-02	-3.528455e-02	-3.541770e-02	-4.753245e-02	-2.760819e-02	-4.488986e-02	-3.659510e-02	-4.347422e-02	-4.152174e-02	-3.983138e-02	-3.835621e-02	-3.734164e-02	-3.578039e-02	-3.505212e-02	-3.455131e-02	-3.423212e-02	-3.405237e-02	-3.400700e-02	-3.402784e-02	-3.406940e-02	-3.326720e-02	-3.565950e-02	-3.616866e-02	-3.821500e-02	-3.926503e-02	-4.703749e-02	-4.789724e-02	2.664035e-02	2.849316e-02	2.984542e-02	1.313073e-02	1.352263e-02	-4.874263e-02	-4.807715e-02	-4.548918e-02	-4.184864e-02	-4.684405e-02	-4.861470e-02	-4.993809e-02	-5.017404e-02	-4.929498e-02	-4.993553e-02	-3.484081e-02	-3.222332e-02	-4.968184e-02	-4.779773e-02	1.610498e-02	1.838576e-02	1.968626e-02	9.678296e-03	1.002729e-02	-7.517087e-02	1.550742e-01	1.533925e-01	-1.036461e-01	6.185349e-03	-6.499411e-02	-4.363118e-02	8.571033e-02	2.760891e-03	4.205927e-03	1.064146e-01	7.434726e-02	-2.506267e-02	-1.420380e-02	-5.134005e-03	-5.278621e-02	2.127680e-02	-2.724625e-02	-8.539376e-02	3.540628e-02	5.024599e-03	-3.849280e-02	-2.795781e-02	3.202250e-03	1.051921e-02	4.167393e-02	1.644374e-02	1.345962e-02	5.093929e-02	5.318996e-02	5.347526e-03	5.632687e-03	-1.184013e-01	-5.875993e-02	-6.107412e-02	-4.958898e-02	-1.329663e-02	-3.135089e-02	1.889551e-02	6.605150e-03	-1.444979e-01	-1.455013e-01	-7.611726e-03	4.876990e-02	-5.112673e-02	4.169225e-02	5.565923e-02	-1.680464e-02	3.758559e-03	1.267998e-02	-1.833193e-03	6.716514e-03	6.809706e-03	-5.659835e-02	-1.070460e-02	4.680025e-02	5.830600e-02	2.013920e-02	-5.533614e-03	1.235563e-01	6.416272e-03	1.735271e-03	2.698315e-03	-3.145536e-02	4.625582e-03	-4.824475e-02	-3.144065e-02	-2.026650e-02	-3.136175e-02	-2.219783e-02	-1.947725e-02	3.056245e-02	3.304886e-02	3.761763e-02	3.995296e-02	6.274484e-02	1.106502e-02	4.326470e-02	4.495417e-02	1.014238e-02	2.550349e-02	2.704792e-02	2.250897e-02	6.876634e-03	7.106151e-03	7.193269e-03	5.871528e-03	9.212581e-03	9.675220e-03	7.347918e-03	7.563958e-03	1.762215e-02	-5.464183e-02	-3.153012e-02	-3.162442e-02	-3.808333e-02	-4.195237e-02	-3.982776e-02	-3.454059e-02	-3.795441e-02	-3.646263e-02	-3.536443e-02	-3.382367e-02	-3.312507e-02	-3.252358e-02	-3.208370e-02	-3.177721e-02	-3.156776e-02	-3.144844e-02	-1.392855e-02	-2.037911e-02	-2.572910e-02	-2.856780e-