# vtk DataFile Version 3.0
vtk output
ASCII
DATASET UNSTRUCTURED_GRID
POINTS 5233 float
9.997500e-01	-3.632909e-05	0.0	9.990000e-01	-1.452618e-04	0.0	9.977600e-01	-3.252008e-04	0.0	9.960200e-01	-5.774943e-04	0.0	9.937800e-01	-9.022942e-04	0.0	9.910500e-01	-1.298763e-03	0.0	9.878400e-01	-1.766726e-03	0.0	9.841300e-01	-2.311194e-03	0.0	9.799500e-01	-2.930640e-03	0.0	9.752800e-01	-3.631444e-03	0.0	9.701500e-01	-4.412625e-03	0.0	9.645400e-01	-5.280292e-03	0.0	9.584700e-01	-6.233365e-03	0.0	9.519400e-01	-7.272227e-03	0.0	9.449600e-01	-8.393908e-03	0.0	9.375400e-01	-9.593773e-03	0.0	9.296900e-01	-1.086609e-02	0.0	9.214000e-01	-1.220804e-02	0.0	9.127000e-01	-1.361074e-02	0.0	9.035800e-01	-1.507272e-02	0.0	8.940600e-01	-1.658877e-02	0.0	8.841500e-01	-1.815610e-02	0.0	8.738500e-01	-1.977361e-02	0.0	8.631800e-01	-2.143627e-02	0.0	8.521600e-01	-2.313752e-02	0.0	8.407700e-01	-2.487471e-02	0.0	8.290500e-01	-2.663345e-02	0.0	8.170100e-01	-2.840162e-02	0.0	8.046400e-01	-3.016792e-02	0.0	7.919700e-01	-3.191393e-02	0.0	7.790100e-01	-3.362378e-02	0.0	7.657800e-01	-3.528073e-02	0.0	7.522800e-01	-3.687177e-02	0.0	7.385200e-01	-3.838440e-02	0.0	7.245300e-01	-3.980643e-02	0.0	7.103200e-01	-4.113073e-02	0.0	6.958900e-01	-4.235375e-02	0.0	6.812700e-01	-4.347212e-02	0.0	6.664700e-01	-4.448693e-02	0.0	6.515000e-01	-4.540154e-02	0.0	6.363800e-01	-4.622067e-02	0.0	6.211300e-01	-4.695082e-02	0.0	6.057600e-01	-4.760016e-02	0.0	5.902800e-01	-4.817747e-02	0.0	5.747100e-01	-4.869148e-02	0.0	5.590600e-01	-4.915119e-02	0.0	5.433600e-01	-4.956464e-02	0.0	5.276100e-01	-4.993996e-02	0.0	5.118400e-01	-5.028359e-02	0.0	4.960500e-01	-5.060149e-02	0.0	4.802700e-01	-5.089775e-02	0.0	4.645100e-01	-5.117554e-02	0.0	4.487800e-01	-5.143670e-02	0.0	4.331100e-01	-5.168146e-02	0.0	4.175000e-01	-5.190932e-02	0.0	4.019700e-01	-5.211839e-02	0.0	3.865400e-01	-5.230586e-02	0.0	3.712300e-01	-5.246816e-02	0.0	3.560400e-01	-5.260130e-02	0.0	3.409900e-01	-5.270061e-02	0.0	3.261100e-01	-5.276113e-02	0.0	3.114000e-01	-5.277790e-02	0.0	2.968700e-01	-5.274582e-02	0.0	2.825500e-01	-5.265996e-02	0.0	2.684500e-01	-5.251559e-02	0.0	2.545700e-01	-5.230801e-02	0.0	2.409400e-01	-5.203324e-02	0.0	2.275700e-01	-5.168749e-02	0.0	2.144700e-01	-5.126729e-02	0.0	2.016600e-01	-5.076993e-02	0.0	1.891400e-01	-5.019238e-02	0.0	1.769300e-01	-4.953284e-02	0.0	1.650400e-01	-4.878952e-02	0.0	1.534900e-01	-4.796177e-02	0.0	1.422900e-01	-4.704883e-02	0.0	1.314400e-01	-4.604934e-02	0.0	1.209500e-01	-4.496296e-02	0.0	1.108500e-01	-4.379208e-02	0.0	1.011300e-01	-4.253503e-02	0.0	9.181000e-02	-4.119389e-02	0.0	8.290000e-02	-3.976997e-02	0.0	7.440000e-02	-3.826304e-02	0.0	6.633000e-02	-3.667657e-02	0.0	5.869000e-02	-3.501058e-02	0.0	5.149000e-02	-3.326708e-02	0.0	4.474000e-02	-3.144844e-02	0.0	3.844000e-02	-2.955433e-02	0.0	3.260000e-02	-2.758711e-02	0.0	2.723000e-02	-2.554977e-02	0.0	2.232000e-02	-2.343708e-02	0.0	1.790000e-02	-2.126113e-02	0.0	1.395000e-02	-1.901092e-02	0.0	1.049000e-02	-1.669561e-02	0.0	7.520000e-03	-1.431461e-02	0.0	5.040000e-03	-1.186637e-02	0.0	3.050000e-03	-9.347302e-03	0.0	1.560000e-03	-6.769269e-03	0.0	5.600000e-04	-4.108233e-03	0.0	6.000000e-05	-1.363608e-03	0.0	0.000000e+00	0.000000e+00	0.0	6.000000e-05	1.350236e-03	0.0	5.600000e-04	4.050826e-03	0.0	1.560000e-03	6.663226e-03	0.0	3.050000e-03	9.195473e-03	0.0	5.040000e-03	1.167583e-02	0.0	7.520000e-03	1.409653e-02	0.0	1.049000e-02	1.646478e-02	0.0	1.395000e-02	1.878581e-02	0.0	1.790000e-02	2.106403e-02	0.0	2.232000e-02	2.329392e-02	0.0	2.723000e-02	2.549065e-02	0.0	3.260000e-02	2.764558e-02	0.0	3.844000e-02	2.976800e-02	0.0	4.474000e-02	3.185849e-02	0.0	5.149000e-02	3.391797e-02	0.0	5.869000e-02	3.595015e-02	0.0	6.633000e-02	3.795531e-02	0.0	7.440000e-02	3.993367e-02	0.0	8.290000e-02	4.188739e-02	0.0	9.181000e-02	4.381361e-02	0.0	1.011300e-01	4.571359e-02	0.0	1.108500e-01	4.758588e-02	0.0	1.209500e-01	4.942683e-02	0.0	1.314400e-01	5.123782e-02	0.0	1.422900e-01	5.301272e-02	0.0	1.534900e-01	5.474871e-02	0.0	1.650400e-01	5.644398e-02	0.0	1.769300e-01	5.809472e-02	0.0	1.891400e-01	5.969553e-02	0.0	2.016600e-01	6.124223e-02	0.0	2.144700e-01	6.272926e-02	0.0	2.275700e-01	6.415328e-02	0.0	2.409400e-01	6.550849e-02	0.0	2.545700e-01	6.679020e-02	0.0	2.684500e-01	6.799357e-02	0.0	2.825500e-01	6.911218e-02	0.0	2.968700e-01	7.014214e-02	0.0	3.114000e-01	7.107860e-02	0.0	3.261100e-01	7.191555e-02	0.0	3.409900e-01	7.264840e-02	0.0	3.560400e-01	7.327286e-02	0.0	3.712300e-01	7.378330e-02	0.0	3.865400e-01	7.417483e-02	0.0	4.019700e-01	7.444303e-02	0.0	4.175000e-01	7.458295e-02	0.0	4.331100e-01	7.458992e-02	0.0	4.487800e-01	7.445955e-02	0.0	4.645100e-01	7.418745e-02	0.0	4.802700e-01	7.376991e-02	0.0	4.960500e-01	7.320341e-02	0.0	5.118400e-01	7.248482e-02	0.0	5.276100e-01	7.161270e-02	0.0	5.433600e-01	7.058503e-02	0.0	5.590600e-01	6.940265e-02	0.0	5.747100e-01	6.806549e-02	0.0	5.902800e-01	6.657731e-02	0.0	6.057600e-01	6.494175e-02	0.0	6.211300e-01	6.316504e-02	0.0	6.363800e-01	6.125402e-02	0.0	6.515000e-01	5.921698e-02	0.0	6.664700e-01	5.706516e-02	0.0	6.812700e-01	5.481151e-02	0.0	6.958900e-01	5.246892e-02	0.0	7.103200e-01	5.005129e-02	0.0	7.245300e-01	4.757686e-02	0.0	7.385200e-01	4.505941e-02	0.0	7.522800e-01	4.251466e-02	0.0	7.657800e-01	3.996213e-02	0.0	7.790100e-01	3.741749e-02	0.0	7.919700e-01	3.489399e-02	0.0	8.046400e-01	3.240819e-02	0.0	8.170100e-01	2.997405e-02	0.0	8.290500e-01	2.760884e-02	0.0	8.407700e-01	2.532127e-02	0.0	8.521600e-01	2.312328e-02	0.0	8.631800e-01	2.103157e-02	0.0	8.738500e-01	1.905016e-02	0.0	8.841500e-01	1.718895e-02	0.0	8.940600e-01	1.545535e-02	0.0	9.035800e-01	1.385019e-02	0.0	9.127000e-01	1.237271e-02	0.0	9.214000e-01	1.102010e-02	0.0	9.296900e-01	9.781662e-03	0.0	9.375400e-01	8.650401e-03	0.0	9.449600e-01	7.612208e-03	0.0	9.519400e-01	6.656126e-03	0.0	9.584700e-01	5.772587e-03	0.0	9.645400e-01	4.954359e-03	0.0	9.701500e-01	4.195689e-03	0.0	9.752800e-01	3.496291e-03	0.0	9.799500e-01	2.852720e-03	0.0	9.841300e-01	2.270023e-03	0.0	9.878400e-01	1.747228e-03	0.0	9.910500e-01	1.290667e-03	0.0	9.937800e-01	8.994899e-04	0.0	9.960200e-01	5.767420e-04	0.0	9.977600e-01	3.250644e-04	0.0	9.990000e-01	1.452495e-04	0.0	9.997500e-01	3.632890e-05	0.0	1.000000e+00	0.000000e+00	0.0	1.984229e+01	2.506660e+00	0.0	1.937166e+01	4.973800e+00	0.0	1.859553e+01	7.362490e+00	0.0	1.752613e+01	9.635070e+00	0.0	1.618034e+01	1.175571e+01	0.0	1.457937e+01	1.369094e+01	0.0	1.274848e+01	1.541027e+01	0.0	1.071654e+01	1.688656e+01	0.0	8.515590e+00	1.809654e+01	0.0	6.180340e+00	1.902113e+01	0.0	3.747630e+00	1.964575e+01	0.0	1.255810e+00	1.996053e+01	0.0	-1.255810e+00	1.996053e+01	0.0	-3.747630e+00	1.964574e+01	0.0	-6.180340e+00	1.902113e+01	0.0	-8.515590e+00	1.809654e+01	0.0	-1.071654e+01	1.688656e+01	0.0	-1.274848e+01	1.541026e+01	0.0	-1.457937e+01	1.369094e+01	0.0	-1.618034e+01	1.175570e+01	0.0	-1.752613e+01	9.635070e+00	0.0	-1.859553e+01	7.362490e+00	0.0	-1.937166e+01	4.973800e+00	0.0	-1.984229e+01	2.506660e+00	0.0	-2.000000e+01	0.000000e+00	0.0	-1.984229e+01	-2.506670e+00	0.0	-1.937166e+01	-4.973800e+00	0.0	-1.859553e+01	-7.362490e+00	0.0	-1.752613e+01	-9.635080e+00	0.0	-1.618034e+01	-1.175571e+01	0.0	-1.457937e+01	-1.369094e+01	0.0	-1.274848e+01	-1.541027e+01	0.0	-1.071653e+01	-1.688656e+01	0.0	-8.515580e+00	-1.809654e+01	0.0	-6.180340e+00	-1.902113e+01	0.0	-3.747620e+00	-1.964575e+01	0.0	-1.255810e+00	-1.996053e+01	0.0	1.255810e+00	-1.996053e+01	0.0	3.747630e+00	-1.964574e+01	0.0	6.180340e+00	-1.902113e+01	0.0	8.515590e+00	-1.809654e+01	0.0	1.071654e+01	-1.688656e+01	0.0	1.274848e+01	-1.541026e+01	0.0	1.457937e+01	-1.369094e+01	0.0	1.618034e+01	-1.175570e+01	0.0	1.752614e+01	-9.635070e+00	0.0	1.859553e+01	-7.362490e+00	0.0	1.937166e+01	-4.973790e+00	0.0	1.984229e+01	-2.506660e+00	0.0	2.000000e+01	0.000000e+00	0.0	6.093892e-02	-4.285144e-02	0.0	6.600410e-01	-5.844939e-02	0.0	4.255297e-01	8.863687e-02	0.0	6.904536e-01	6.677179e-02	0.0	3.791252e-01	-6.656260e-02	0.0	9.994589e-01	-7.258723e-04	0.0	9.985402e-01	-1.320872e-03	0.0	7.738251e-01	-4.634860e-02	0.0	6.897588e-01	-5.606349e-02	0.0	-1.367138e-03	6.233161e-03	0.0	7.467650e-01	-4.997311e-02	0.0	5.838090e-01	8.122916e-02	0.0	9.927651e-01	-3.598793e-03	0.0	9.898616e-01	-4.480982e-03	0.0	5.994275e-01	7.958836e-02	0.0	7.187102e-01	-5.322760e-02	0.0	-1.548094e-03	7.305687e-04	0.0	9.864673e-01	-5.441292e-03	0.0	9.825916e-01	-6.470515e-03	0.0	-1.358171e-03	-6.336027e-03	0.0	6.449375e-01	-5.947833e-02	0.0	8.244939e-01	-3.842106e-02	0.0	7.997632e-01	-4.246746e-02	0.0	3.482204e-01	8.660152e-02	0.0	8.478910e-01	-3.434813e-02	0.0	2.468390e-01	7.862192e-02	0.0	8.698983e-01	-3.032503e-02	0.0	1.001408e-02	2.079824e-02	0.0	8.904116e-01	-2.642047e-02	0.0	7.722818e-02	-4.682321e-02	0.0	9.093595e-01	-2.267674e-02	0.0	-1.865007e-03	-3.138557e-03	0.0	9.422484e-01	-1.580904e-02	0.0	9.266631e-01	-1.912583e-02	0.0	1.806769e-02	-2.637803e-02	0.0	4.256782e-01	-6.623083e-02	0.0	8.590773e-01	-3.232303e-02	0.0	9.560748e-01	-1.276843e-02	0.0	9.782290e-01	-7.589010e-03	0.0	9.680882e-01	-1.002215e-02	0.0	1.584746e-01	-5.900398e-02	0.0	9.000881e-01	-2.452666e-02	0.0	7.604299e-01	-4.820093e-02	0.0	9.971132e-01	-2.058079e-03	0.0	5.988429e-01	-6.197001e-02	0.0	4.413590e-01	-6.604490e-02	0.0	5.361230e-01	-6.418097e-02	0.0	4.728882e-01	-6.557080e-02	0.0	5.045102e-01	-6.495629e-02	0.0	4.886866e-01	-6.528085e-02	0.0	1.251652e-01	-5.514410e-02	0.0	2.799454e-02	-3.148915e-02	0.0	3.945492e-01	-6.649285e-02	0.0	4.640172e-02	-3.855324e-02	0.0	4.100682e-01	-6.638196e-02	0.0	3.187978e-01	-6.636792e-02	0.0	3.486567e-01	-6.657206e-02	0.0	3.367005e-02	-3.391128e-02	0.0	2.896281e-01	-6.592628e-02	0.0	9.346743e-01	-1.743395e-02	0.0	1.470184e-01	-5.780948e-02	0.0	1.948400e-01	-6.200962e-02	0.0	8.600599e-02	-4.867547e-02	0.0	1.048018e-01	-5.210645e-02	0.0	5.676108e-01	-6.321237e-02	0.0	1.702734e-01	-6.010386e-02	0.0	6.143295e-01	-6.122907e-02	0.0	8.803501e-01	-2.835590e-02	0.0	2.280418e-02	-2.897635e-02	0.0	9.951875e-01	-2.803889e-03	0.0	6.796488e-03	-1.820110e-02	0.0	1.798544e-02	2.626178e-02	0.0	9.182203e-01	-2.087471e-02	0.0	9.49388
[...]
POINT_DATA 5233

SCALARS Conservative_1 float 1
LOOKUP_TABLE default
4.258343e-01	2.156043e-01	1.756921e-01	1.464373e-01	1.273460e-01	1.127902e-01	1.012110e-01	9.183044e-02	8.413739e-02	7.776413e-02	7.242775e-02	6.793556e-02	6.410484e-02	6.083152e-02	5.800517e-02	5.555303e-02	5.341021e-02	5.140959e-02	4.952880e-02	4.781542e-02	4.643205e-02	4.527328e-02	4.432505e-02	4.355692e-02	4.288862e-02	4.238312e-02	4.192559e-02	4.159511e-02	4.126810e-02	4.098615e-02	4.071971e-02	4.037183e-02	4.005770e-02	3.958443e-02	3.911417e-02	3.849204e-02	3.786540e-02	3.709840e-02	3.634802e-02	3.548382e-02	3.466146e-02	3.375799e-02	3.292241e-02	3.203396e-02	3.122954e-02	3.040228e-02	2.965717e-02	2.892191e-02	2.825154e-02	2.761313e-02	2.702963e-02	2.647852e-02	2.595696e-02	2.549384e-02	2.503513e-02	2.464050e-02	2.424153e-02	2.389356e-02	2.353392e-02	2.321468e-02	2.287649e-02	2.257221e-02	2.223803e-02	2.193019e-02	2.158553e-02	2.125822e-02	2.088886e-02	2.052918e-02	2.012691e-02	1.971507e-02	1.927279e-02	1.879855e-02	1.830519e-02	1.776580e-02	1.720007e-02	1.659892e-02	1.594765e-02	1.526451e-02	1.452802e-02	1.374987e-02	1.291361e-02	1.202663e-02	1.107838e-02	1.006907e-02	8.988790e-03	7.840582e-03	6.611703e-03	5.304761e-03	3.919528e-03	2.448194e-03	9.294607e-04	-4.703165e-04	-2.230312e-03	-4.620654e-03	-2.245496e-03	5.917095e-03	7.917070e-03	2.557370e-03	-4.476595e-03	-1.095081e-02	-1.697531e-02	-3.007847e-02	-5.012651e-02	-6.637144e-02	-7.832688e-02	-9.751927e-02	-1.247524e-01	-1.465812e-01	-1.573597e-01	-1.615137e-01	-1.635582e-01	-1.646643e-01	-1.646616e-01	-1.631367e-01	-1.602973e-01	-1.565153e-01	-1.522605e-01	-1.479921e-01	-1.441214e-01	-1.408281e-01	-1.381490e-01	-1.361917e-01	-1.350000e-01	-1.344919e-01	-1.342973e-01	-1.341139e-01	-1.338574e-01	-1.335836e-01	-1.334001e-01	-1.333719e-01	-1.333125e-01	-1.332107e-01	-1.328416e-01	-1.321814e-01	-1.313218e-01	-1.303550e-01	-1.295813e-01	-1.287737e-01	-1.276238e-01	-1.253455e-01	-1.218481e-01	-1.164507e-01	-1.077931e-01	-9.510370e-02	-8.232152e-02	-7.566947e-02	-7.544184e-02	-7.785482e-02	-7.994466e-02	-8.121841e-02	-8.183997e-02	-8.212867e-02	-8.190031e-02	-8.127929e-02	-8.035379e-02	-7.909935e-02	-7.778459e-02	-7.623049e-02	-7.460939e-02	-7.293390e-02	-7.116266e-02	-6.946766e-02	-6.769228e-02	-6.606059e-02	-6.438218e-02	-6.288509e-02	-6.137546e-02	-6.007070e-02	-5.877503e-02	-5.769691e-02	-5.664419e-02	-5.582541e-02	-5.502395e-02	-5.447774e-02	-5.403594e-02	-5.378422e-02	-5.375671e-02	-5.393942e-02	-5.445660e-02	-5.523148e-02	-5.652156e-02	-5.811272e-02	-5.997095e-02	-6.202033e-02	-6.446621e-02	-6.723614e-02	-7.042387e-02	-7.398234e-02	-7.800981e-02	-8.255372e-02	-8.777143e-02	-9.380823e-02	-1.009240e-01	-1.093842e-01	-1.196114e-01	-1.320958e-01	-1.511018e-01	-1.675101e-01	-3.196363e-01	4.038530e-02	-1.041911e-04	-1.145046e-04	-1.242507e-04	-1.326116e-04	-1.428895e-04	-1.508030e-04	-1.596668e-04	-1.629495e-04	-1.578121e-04	-1.568289e-04	-1.632047e-04	-1.657123e-04	-1.693788e-04	-1.625187e-04	-1.450845e-04	-1.370634e-04	-1.193779e-04	-1.064772e-04	-9.210911e-05	-7.348240e-05	-4.766143e-05	-3.148125e-05	2.571278e-05	1.595586e-04	1.131733e-04	1.363346e-04	1.994432e-04	2.084834e-04	1.291791e-04	1.602858e-04	1.871082e-04	2.015057e-04	2.130687e-04	2.154496e-04	2.152007e-04	2.049227e-04	1.723827e-04	1.435393e-04	8.809236e-05	6.566451e-05	5.495361e-05	3.519256e-05	1.530962e-05	-5.347049e-06	-2.453216e-05	-4.147552e-05	-5.603699e-05	-7.003042e-05	-8.232603e-05	-9.385806e-05	9.675890e-03	3.175367e-02	-6.473783e-02	-5.932441e-02	2.124087e-02	3.308376e-01	2.368319e-01	3.682975e-02	3.324429e-02	-3.074811e-02	3.578113e-02	-6.721631e-02	1.254049e-01	1.096824e-01	-6.624229e-02	3.460082e-02	-1.291862e-02	9.780187e-02	8.852543e-02	4.029448e-03	3.099738e-02	3.891815e-02	3.782582e-02	-9.737105e-02	4.027080e-02	-1.091402e-01	4.204842e-02	-1.067266e-01	4.448578e-02	1.134815e-02	4.789788e-02	-1.669454e-03	5.615765e-02	5.174319e-02	1.639475e-03	2.229236e-02	4.108529e-02	6.195469e-02	8.105917e-02	6.986558e-02	1.608902e-02	4.606876e-02	3.634462e-02	1.797494e-01	2.865699e-02	2.270524e-02	2.585817e-02	2.360904e-02	2.466465e-02	2.412464e-02	1.461438e-02	4.294418e-03	2.156367e-02	7.742132e-03	2.192667e-02	2.005508e-02	2.062604e-02	5.519687e-03	1.949743e-02	5.383200e-02	1.563619e-02	1.730237e-02	1.209595e-02	1.344342e-02	2.719416e-02	1.652437e-02	2.944008e-02	4.316011e-02	3.004305e-03	1.472586e-01	-2.854532e-03	-1.324165e-01	4.981405e-02	5.883789e-02	7.494129e-02	-4.462140e-02	3.953454e-02	1.862248e-02	2.651922e-02	3.522933e-02	3.733491e-02	1.405128e-02	1.799583e-02	2.792779e-02	3.253087e-02	8.741445e-03	-3.579929e-03	3.134369e-04	2.091798e-02	1.692376e-02	4.465072e-01	1.832343e-02	1.279606e-02	1.976626e-02	1.892910e-02	2.313760e-02	3.396237e-02	-1.921301e-02	6.178992e-03	-6.905789e-02	-7.889900e-03	-1.401096e-01	-1.383362e-01	-1.422109e-01	-1.160464e-01	-6.689561e-02	-1.599357e-01	-6.910628e-02	-6.736289e-02	-7.966347e-02	-7.144653e-02	-5.266089e-02	-6.824069e-02	-6.511212e-02	-8.407685e-02	-5.837455e-02	-5.514173e-02	-1.270132e-01	-8.475425e-02	-6.806218e-02	-6.251179e-02	-1.203698e-01	-1.348926e-01	-1.053174e-01	-1.079870e-01	-1.124805e-01	-1.024947e-01	-6.621744e-02	-7.434499e-02	-1.135503e-01	-1.148215e-01	-6.407666e-02	-1.115349e-01	-1.106731e-01	-6.170451e-02	-6.799845e-02	-5.510710e-02	-5.708985e-02	-5.220264e-02	-5.346424e-02	-5.108180e-02	-5.140628e-02	-5.375864e-02	-5.140535e-02	-6.511166e-02	-5.670663e-02	-7.527304e-02	-5.115981e-02	-5.190206e-02	-5.171385e-02	-5.114840e-02	-5.421427e-02	-5.275765e-02	-5.815497e-02	-5.603454e-02	-6.288618e-02	-6.048093e-02	-6.865962e-02	-6.521104e-02	-1.111561e-01	-1.100269e-01	-1.130340e-01	-1.119762e-01	-1.409280e-01	-1.140750e-01	-1.237903e-01	-1.418881e-01	1.766334e-02	-6.331150e-02	6.558575e-02	3.833723e-02	2.032830e-02	2.524781e-02	-5.408574e-02	-1.370691e-01	-8.262081e-02	-1.234179e-01	-1.309778e-01	-1.066927e-01	-1.178888e-01	-9.079816e-02	-9.809732e-02	-1.039855e-01	-1.072850e-01	-1.192536e-01	-1.005093e-01	-9.223384e-02	-6.031868e-02	-3.752192e-01	-2.025698e-01	-2.700358e-01	3.019886e-02	6.668451e-03	-1.357046e-01	-6.884798e-02	1.250428e-03	-9.311155e-04	1.054117e-02	1.514408e-02	1.920765e-02	-1.105435e-01	-2.852829e-02	-1.944716e-02	1.681004e-02	2.959778e-02	4.676298e-02	-1.216425e-03	-5.578637e-02	2.892275e-02	3.360928e-02	1.039199e-01	1.755468e-02	3.827570e-02	3.647339e-02	1.116372e-02	3.775434e-03	1.555402e-02	1.110526e-03	6.236721e-02	1.397480e-02	3.033667e-02	2.748379e-02	1.997226e-02	1.056000e-02	1.862848e-02	4.321700e-02	3.426673e-02	-7.140170e-02	-1.110493e-01	-5.179302e-02	-4.762403e-02	-9.830470e-02	-5.104833e-02	-9.223365e-02	-4.904243e-02	-1.019279e-01	-7.329419e-02	-5.700219e-02	-6.432072e-02	-4.986611e-02	-1.132681e-01	-6.743373e-02	-8.594427e-02	-8.710354e-02	-7.705401e-02	-8.819868e-02	-1.007218e-01	2.816659e-02	1.526300e-02	-9.017900e-02	-9.376136e-02	-1.193498e-01	-7.519374e-02	-1.281879e-01	-5.084136e-02	1.431356e-02	-1.208458e-01	-1.729492e-01	-1.492019e-01	-5.381556e-02	-3.784762e-02	-2.839396e-03	-5.647245e-03	-9.812667e-03	2.326278e-03	1.482449e-01	9.183493e-03	1.923219e-01	1.365841e-01	-5.259246e-02	2.281678e-02	9.290455e-02	4.048147e-02	-5.528705e-02	1.179517e-01	-4.749865e-04	1.959268e-02	-5.121303e-02	3.730137e-02	-8.315103e-02	3.930763e-02	4.177505e-02	9.898556e-03	4.488390e-02	4.881753e-02	5.586297e-02	4.616540e-03	5.886162e-02	6.646384e-02	8.423324e-02	1.316703e-02	3.227957e-02	3.297799e-02	1.622400e-01	2.036391e-02	2.078220e-02	2.125688e-02	3.500129e-03	1.891787e-02	1.926572e-02	1.779111e-02	6.649585e-03	5.093276e-02	5.324095e-02	1.358420e-02	1.172831e-02	2.343109e-02	2.533461e-02	7.131781e-02	7.712568e-02	3.097450e-02	3.167693e-02	1.224005e-02	1.273337e-02	2.401740e-02	2.469846e-02	7.559177e-03	8.405752e-03	4.205889e-05	1.806801e-02	1.832744e-02	1.466041e-02	1.496923e-02	1.580877e-02	1.607888e-02	1.706451e-02	1.729274e-02	1.632045e-02	-1.339655e-02	-1.434293e-03	-1.205937e-01	-9.301527e-02	-5.698823e-02	-5.669383e-02	-5.641756e-02	-5.611961e-02	-8.006964e-02	-7.103975e-02	-5.531971e-02	-5.576407e-02	-5.471660e-02	-5.341785e-02	-5.358525e-02	-6.157229e-02	-1.140769e-01	-1.170613e-01	-8.592503e-02	-8.458174e-02	-9.293557e-02	-9.489006e-02	-9.638630e-02	-4.742964e-02	-4.870651e-02	-4.926377e-02	-4.769267e-02	-4.744949e-02	-5.208803e-02	-4.844421e-02	-4.795443e-02	-4.730305e-02	-4.737252e-02	-4.791988e-02	-4.832727e-02	-4.977360e-02	-5.043914e-02	-5.246182e-02	-5.322596e-02	-5.637516e-02	-5.678177e-02	-5.392668e-02	-5.460307e-02	-8.916136e-02	-8.995350e-02	-9.076427e-02	-9.149818e-02	-1.032094e-01	-1.204805e-01	-1.189342e-01	3.497363e-02	3.566725e-02	2.174279e-02	2.228401e-02	-4.424701e-02	-1.159341e-01	-1.035719e-01	-1.068972e-01	-7.958334e-02	-8.146819e-02	-6.003052e-02	-6.746047e-02	-5.923225e-02	-5.712880e-02	2.606244e-02	2.673069e-02	5.669416e-03	3.177512e-03	1.658338e-02	1.289149e-04	1.626084e-02	1.453318e-02	3.089326e-02	1.965838e-02	4.519291e-02	-9.843057e-02	-9.050688e-02	-6.561448e-02	-3.782563e-02	-1.070570e-01	-2.211357e-01	-2.013268e-01	1.478368e-01	7.773590e-03	2.945951e-03	-1.186083e-02	1.013026e-02	4.732067e-02	1.015066e-01	-4.672540e-02	2.500838e-01	-1.383023e-03	2.664639e-02	6.835209e-04	2.733253e-02	1.911899e-03	3.741508e-02	-2.635701e-05	1.522826e-02	3.626884e-02	2.591567e-02	1.122782e-01	8.953572e-04	-7.823069e-02	-4.730819e-02	-5.969090e-02	-4.460034e-02	-1.188464e-01	-4.715192e-02	-6.434440e-02	-5.239134e-02	-7.369103e-02	-9.401680e-02	-2.201461e-01	2.519300e-03	-2.528881e-02	-8.449976e-02	-1.830019e-02	6.172826e-02	9.675494e-03	-8.363292e-03	1.225942e-02	1.754752e-02	3.946556e-03	-6.070234e-02	-4.398376e-02	-4.301633e-02	-4.424281e-02	-8.388792e-02	-6.247600e-02	-4.739142e-02	-4.641931e-02	-5.723543e-02	-6.287387e-02	-6.771441e-02	-8.225927e-02	2.451574e-02	2.522911e-02	1.323219e-02	-7.419972e-02	-7.465166e-02	-7.336038e-02	-1.361324e-01	-4.710201e-02	-3.184948e-02	-1.873396e-03	-4.439176e-03	4.889512e-03	2.230058e-01	2.508058e-01	6.596989e-02	9.177172e-02	-4.631577e-02	1.720092e-02	-4.190001e-02	3.426010e-02	3.519287e-02	3.865840e-02	4.003249e-02	8.597320e-03	9.160832e-03	4.151996e-02	4.328036e-02	5.488225e-02	5.805759e-02	8.364851e-02	2.940638e-02	3.022319e-02	1.269417e-01	1.795077e-02	1.830445e-02	1.652940e-02	1.687314e-02	5.753045e-03	4.962016e-02	5.207807e-02	1.164806e-02	1.195805e-02	2.019749e-02	2.072085e-02	7.090400e-02	7.676937e-02	2.808716e-02	2.879123e-02	1.055618e-02	1.095537e-02	1.133186e-02	2.131414e-02	2.189671e-02	6.560598e-03	7.304488e-03	7.994447e-03	1.544385e-02	1.572368e-02	1.595845e-02	1.251264e-02	1.276641e-02	1.302236e-02	1.348048e-02	1.366929e-02	1.477422e-02	1.497345e-02	1.391027e-02	-9.880100e-02	-4.711472e-02	-4.710752e-02	-6.922906e-02	-4.711663e-02	-4.666819e-02	-4.509385e-02	-3.791395e-02	-5.139589e-02	-9.624328e-02	-9.783190e-02	-6.554040e-02	-6.653639e-02	-7.603748e-02	-7.778354e-02	-7.980226e-02	-4.322576e-02	-4.986951e-02	-4.847087e-02	-4.565777e-02	-4.493559e-02	-4.440630e-02	-4.348730e-02	-4.337271e-02	-4.318950e-02	-4.302378e-02	-4.300702e-02	-4.311739e-02	-4.344643e-02	-4.365454e-02	-4.395366e-02	-4.494239e-02	-4.709048e-02	-4.720675e-02	-4.533198e-02	-4.566727e-02	-4.608634e-02	-6.885789e-02	-6.996706e-02	-7.105098e-02	-7.202511e-02	-7.290086e-02	-9.899172e-02	-9.815298e-02	3.171714e-02	3.252896e-02	3.333068e-02	1.870681e-02	1.921255e-02	-9.585995e-02	-9.153656e-02	-8.500042e-02	-8.805139e-02	-9.117279e-02	-6.056952e-02	-3.656748e-02	-3.988177e-02	-4.620862e-02	-5.728811e-02	-5.509801e-02	-5.319652e-02	2.254128e-02	2.316934e-02	2.385177e-02	1.410764e-02	1.434486e-02	-3.921128e-04	9.079595e-03	-1.041409e-01	-7.432585e-02	1.785225e-02	-1.240706e-02	1.552972e-01	4.353645e-02	4.573575e-02	5.115493e-03	-9.047871e-02	-4.036239e-02	7.705039e-04	-6.045715e-02	6.237388e-05	-6.003222e-02	-9.619151e-02	-2.312716e-02	-3.978034e-02	-2.822859e-02	-8.619395e-02	9.952198e-02	2.912673e-02	1.066798e-02	3.537232e-03	1.429193e-02	8.760899e-03	1.521688e-02	1.258257e-02	-7.909067e-02	-4.045671e-02	-5.737630e-02	-5.504287e-02	-3.938164e-02	-5.856490e-02	-4.969362e-02	8.635116e-02	-7.733612e-02	3.460743e-02	-1.415256e-01	-8.448216e-02	1.104029e-01	6.392521e-02	2.692116e-03	2.393368e-02	-8.366938e-04	2.442194e-02	2.540592e-02	1.804319e-03	9.375038e-02	1.007814e-03	-4.089051e-02	-4.090927e-02	-4.156119e-02	-1.776419e-02	-5.081584e-02	-3.921778e-02	-4.409907e-02	-3.618235e-02	-4.580430e-02	-4.812048e-02	2.255786e-02	2.301728e-02	-7.004572e-02	-4.118070e-02	-3.363369e-02	-2.621541e-04	-3.294010e-03	4.373223e-03	5.995783e-02	7.960075e-02	-4.009446e-02	3.251788e-02	3.345522e-02	3.575313e-02	3.704029e-02	7.971284e-03	8.384725e-03	3.836638e-02	3.991187e-02	4.170704e-02	5.332088e-02	5.643446e-02	2.754559e-02	2.812367e-02	1.009249e-01	1.563175e-02	1.604805e-02	1.452433e-02	1.491247e-02	4.807219e-02	5.052562e-02	1.020478e-02	1.037170e-02	1.815655e-02	6.847265e-02	7.370923e-02	2.597407e-02	2.661695e-02	9.401169e-03	9.651891e-03	9.992172e-03	1.887523e-02	1.922896e-02	5.793381e-03	6.423818e-03	7.018019e-03	7.532167e-03	1.321444e-02	1.347375e-02	1.370739e-02	1.399823e-02	1.080561e-02	1.104874e-02	1.120750e-02	1.142698e-02	1.158217e-02	1.300526e-02	1.276976e-02	1.179498e-02	-4.045012e-02	-6.629844e-02	-6.298463e-02	-4.040382e-02	-4.019193e-02	-3.944008e-02	-3.758742e-02	-3.419996e-02	-7.803992e-02	-7.846475e-02	-5.038484e-02	-5.134680e-02	-5.990818e-02	-6.181393e-02	-6.381955e-02	-6.623436e-02	-4.754408e-02	-4.621827e-02	-4.503723e-02	-4.320462e-02	-4.246584e-02	-4.174699e-02	-4.129617e-02	-4.021379e-02	-4.006499e-02	-3.993891e-02	-3.953336e-02	-3.909278e-02	-3.936925e-02	-3.898765e-02	-3.937383e-02	-3.903682e-02	-3.952002e-02	-4.044331e-02	-4.102237e-02	-3.949133e-02	-4.011861e-02	-3.983563e-02	-4.045625e-02	-5.219619e-02	-5.336656e-02	-5.440696e-02	-5.565008e-02	-5.661922e-02	-5.752228e-02	-7.881662e-02	-7.886110e-02	2.980863e-02	3.060356e-02	3.155762e-02	1.631367e-02	1.694341e-02	1.720643e-02	-7.766907e-02	-7.427635e-02	-6.845897e-02	-6.890080e-02	-7.172455e-02	-7.425394e-02	-7.612695e-02	-2.914025e-02	-2.547086e-02	-2.608422e-02	-3.026632e-02	-4.914036e-02	-5.286149e-02	-5.100129e-02	2.000975e-02	2.040740e-02	2.124141e-02	2.167538e-02	1.196934e-02	1.219014e-02	1.236104e-02	2.647747e-03	-9.125849e-02	5.735308e-02	-1.518852e-01	1.944634e-03	2.326522e-02	8.146465e-03	1.208120e-03	-6.594440e-02	2.240655e-04	4.705396e-03	9.282173e-03	-4.802464e-02	-4.206206e-02	-2.530884e-02	-1.274286e-02	-8.278945e-03	-6.881402e-03	-8.489987e-03	-1.569864e-05	9.538621e-02	-2.426298e-02	6.085432e-02	7.876976e-02	4.425440e-02	2.717312e-02	1.267263e-02	-8.110434e-02	-4.597859e-02	-5.068993e-02	-3.620811e-02	-3.603572e-02	-3.568660e-02	-3.645007e-02	-3.556330e-02	1.597088e-02	-2.012754e-02	-7.726209e-02	7.900872e-03	-1.620706e-01	-6.937689e-02	-6.219613e-03	1.690754e-01	1.807455e-01	4.246390e-02	5.249656e-03	-1.310070e-03	-4.879592e-02	4.750401e-04	-5.486723e-02	-2.126282e-02	-3.158586e-02	3.413191e-02	3.366845e-03	1.135605e-02	1.101167e-02	-7.299011e-02	-3.564631e-02	-5.272802e-02	7.346318e-02	2.178679e-02	-1.711664e-02	-3.140695e-02	-3.442488e-02	-3.866024e-02	2.043459e-02	-3.542064e-02	-2.981809e-02	-3.288072e-03	4.050650e-03	3.123322e-02	3.239383e-02	3.336647e-02	3.472328e-02	7.630342e-03	7.355320e-03	3.580904e-02	3.732386e-02	3.861452e-02	4.029806e-02	5.131784e-02	5.419428e-02	2.552381e-02	8.343202e-02	1.380332e-02	1.406879e-02	1.311085e-02	1.327669e-02	4.638564e-02	4.871013e-02	8.903081e-03	9.209185e-03	6.473537e-02	6.896582e-02	2.419781e-02	8.298387e-03	8.650607e-03	8.853356e-03	1.692636e-02	5.745179e-03	6.235114e-03	6.655237e-03	7.049024e-03	1.142115e-02	1.178639e-02	1.187018e-02	1.228542e-02	1.246340e-02	9.565920e-03	9.603657e-03	9.893902e-03	9.925432e-03	1.022197e-02	-6.278164e-02	-5.988952e-02	-5.727538e-02	-3.598283e-02	-3.527485e-02	-3.540216e-02	-3.414437e-02	-3.293524e-02	-6.102157e-02	-6.075342e-02	-3.898694e-02	-4.072898e-02	-5.059823e-02	-5.181107e-02	-5.395260e-02	-4.438273e-02	-4.342975e-02	-4.228034e-02	-4.160543e-02	-4.058662e-02	-4.001159e-02	-3.919485e-02	-3.849058e-02	-3.753803e-02	-3.715990e-02	-3.603445e-02	-3.578553e-02	-3.568163e-02	-3.579452e-02	-3.588294e-02	-4.045090e-02	-4.207707e-02	-4.208159e-02	-4.415685e-02	-4.437947e-02	-4.533253e-02	-4.659852e-02	-6.111385e-02	-6.189312e-02	2.832198e-02	2.942078e-02	3.024411e-02	1.439569e-02	1.510099e-02	-6.179143e-02	-5.938161e-02	-5.473283e-02	-5.632557e-02	-5.863928e-02	-6.044894e-02	-6.123060e-02	-6.117272e-02	-2.916000e-02	-2.373476e-02	-1.962832e-02	-1.715641e-02	-4.888414e-02	-4.737011e-02	1.800312e-02	1.917450e-02	1.027009e-02	1.059360e-02	1.063545e-02	1.095759e-02	1.830376e-01	-1.646489e-01	2.185236e-03	-9.229267e-03	8.166699e-02	5.665517e-02	-6.646413e-02	-1.646844e-02	-5.194117e-02	9.372123e-02	6.277468e-02	-4.044135e-03	4.931687e-03	2.809320e-03	-1.295696e-02	-7.841865e-02	-3.019277e-02	-1.958787e-02	3.378825e-03	5.384083e-02	1.371590e-02	-6.350331e-02	9.941917e-03	4.251794e-02	4.010079e-02	1.660383e-02	7.278320e-03	8.323256e-03	4.607740e-04	1.159930e-02	6.969648e-03	7.167640e-03	-4.364011e-02	-5.849104e-02	-4.360002e-02	-1.325565e-02	-3.464303e-02	5.118149e-02	-1.503802e-01	-6.088244e-02	-7.403855e-03	-1.949710e-03	6.638394e-02	2.169371e-02	-3.176573e-02	-3.200878e-02	-6.991241e-02	-9.186396e-04	-8.987963e-02	-5.235763e-03	1.688727e-01	5.292448e-03	1.383446e-03	1.659008e-03	-3.201353e-02	4.458675e-03	-5.012204e-02	-4.849205e-02	-3.193776e-02	-1.959968e-02	-2.805763e-02	2.042429e-02	-2.622696e-02	-2.274091e-02	3.931636e-03	3.069290e-02	3.300453e-02	6.747346e-03	3.552104e-02	3.746497e-02	4.871498e-02	7.052631e-02	1.223926e-02	4.438149e-02	4.645494e-02	8.032452e-03	5.957491e-02	2.279922e-02	2.425982e-02	7.629814e-03	7.808556e-03	1.456414e-02	5.660625e-03	5.958911e-03	6.316509e-03	6.570607e-03	1.034240e-02	1.084083e-02	1.111084e-02	8.593304e-03	8.888557e-03	-5.615731e-02	-5.397230e-02	-3.143254e-02	-2.930387e-02	-4.671440e-02	-3.224074e-02	-4.571791e-02	-3.472027e-02	-4.132289e-02	-3.946027e-02	-3.784203e-02	-3.642450e-02	-3.544461e-02	-3.392303e-02	-3.319962e-02	-3.268613e-02	-3.233706e-02	-3.210906e-02	-3.199377e-02	-3.192345e-02	-3.186013e-02	-3.384269e-02	-3.559038e-02	-3.664463e-02	-3.880086e-02	-4.007783e-02	-4.690668e-02	-4.818290e-02	2.581872e-02	2.761903e-02	2.893098e-02	1.262032e-02	1.300641e-02	-4.876758e-02	-4.717384e-02	-4.350533e-02	-3.917227e-02	-4.751955e-02	-4.892363e-02	-4.973695e-02	-4.941159e-02	-4.817432e-02	-4.874935e-02	-2.335696e-02	-1.561560e-02	-4.722710e-02	-4.543548e-02	1.553602e-02	1.776856e-02	1.904121e-02	9.225615e-03	9.570537e-03	-7.128503e-02	1.508142e-01	1.491833e-01	-9.803490e-02	5.821532e-03	-6.168741e-02	-4.110913e-02	8.321708e-02	2.595081e-03	3.971428e-03	1.034035e-01	7.216784e-02	-2.287622e-02	-1.336876e-02	-5.006211e-03	-5.010609e-02	2.060413e-02	-1.185264e-02	-8.090748e-02	3.435467e-02	4.735995e-03	-3.759115e-02	-2.560531e-02	3.030046e-03	1.007328e-02	4.046154e-02	1.587755e-02	1.295410e-02	4.946737e-02	5.164741e-02	5.037229e-03	5.303490e-03	-1.118107e-01	-5.577210e-02	-5.797227e-02	-4.708043e-02	-1.341075e-02	-2.927209e-02	1.827789e-02	6.218643e-03	-1.363181e-01	-1.371918e-01	-7.275573e-03	4.736289e-02	-4.853560e-02	4.053561e-02	5.403586e-02	-1.562815e-02	3.552209e-03	1.219049e-02	-1.677982e-03	6.323112e-03	6.413001e-03	-5.372134e-02	-1.021607e-02	4.545094e-02	5.658827e-02	1.949357e-02	-5.378707e-03	1.198516e-01	6.037008e-03	1.725536e-03	2.537767e-03	-2.911060e-02	4.363624e-03	-4.581104e-02	-2.924482e-02	-8.511468e-03	-2.937647e-02	-2.030824e-02	-1.794321e-02	2.964581e-02	3.206263e-02	3.650986e-02	3.878427e-02	6.087978e-02	1.060918e-02	4.201162e-02	4.365609e-02	9.703182e-03	2.472451e-02	2.622565e-02	2.180659e-02	6.479946e-03	6.703847e-03	6.791586e-03	5.524762e-03	8.790852e-03	9.246023e-03	6.946614e-03	7.161737e-03	1.703156e-02	-5.186464e-02	-2.894653e-02	-2.862836e-02	-3.998960e-02	-3.983789e-02	-3.782215e-02	-3.277780e-02	-3.604227e-02	-3.462103e-02	-3.357094e-02	-3.208139e-02	-3.139440e-02	-3.079069e-02	-3.033229e-02	-2.999177e-02	-2.973185e-02	-2.954439e-02	-2.070081e-02	-2.519501e-02	-2.735078e-02	-2.964539e-