# vtk DataFile Version 3.0
vtk output
ASCII
DATASET UNSTRUCTURED_GRID
POINTS 5233 float
9.997500e-01	-3.632909e-05	0.0	9.990000e-01	-1.452618e-04	0.0	9.977600e-01	-3.252008e-04	0.0	9.960200e-01	-5.774943e-04	0.0	9.937800e-01	-9.022942e-04	0.0	9.910500e-01	-1.298763e-03	0.0	9.878400e-01	-1.766726e-03	0.0	9.841300e-01	-2.311194e-03	0.0	9.799500e-01	-2.930640e-03	0.0	9.752800e-01	-3.631444e-03	0.0	9.701500e-01	-4.412625e-03	0.0	9.645400e-01	-5.280292e-03	0.0	9.584700e-01	-6.233365e-03	0.0	9.519400e-01	-7.272227e-03	0.0	9.449600e-01	-8.393908e-03	0.0	9.375400e-01	-9.593773e-03	0.0	9.296900e-01	-1.086609e-02	0.0	9.214000e-01	-1.220804e-02	0.0	9.127000e-01	-1.361074e-02	0.0	9.035800e-01	-1.507272e-02	0.0	8.940600e-01	-1.658877e-02	0.0	8.841500e-01	-1.815610e-02	0.0	8.738500e-01	-1.977361e-02	0.0	8.631800e-01	-2.143627e-02	0.0	8.521600e-01	-2.313752e-02	0.0	8.407700e-01	-2.487471e-02	0.0	8.290500e-01	-2.663345e-02	0.0	8.170100e-01	-2.840162e-02	0.0	8.046400e-01	-3.016792e-02	0.0	7.919700e-01	-3.191393e-02	0.0	7.790100e-01	-3.362378e-02	0.0	7.657800e-01	-3.528073e-02	0.0	7.522800e-01	-3.687177e-02	0.0	7.385200e-01	-3.838440e-02	0.0	7.245300e-01	-3.980643e-02	0.0	7.103200e-01	-4.113073e-02	0.0	6.958900e-01	-4.235375e-02	0.0	6.812700e-01	-4.347212e-02	0.0	6.664700e-01	-4.448693e-02	0.0	6.515000e-01	-4.540154e-02	0.0	6.363800e-01	-4.622067e-02	0.0	6.211300e-01	-4.695082e-02	0.0	6.057600e-01	-4.760016e-02	0.0	5.902800e-01	-4.817747e-02	0.0	5.747100e-01	-4.869148e-02	0.0	5.590600e-01	-4.915119e-02	0.0	5.433600e-01	-4.956464e-02	0.0	5.276100e-01	-4.993996e-02	0.0	5.118400e-01	-5.028359e-02	0.0	4.960500e-01	-5.060149e-02	0.0	4.802700e-01	-5.089775e-02	0.0	4.645100e-01	-5.117554e-02	0.0	4.487800e-01	-5.143670e-02	0.0	4.331100e-01	-5.168146e-02	0.0	4.175000e-01	-5.190932e-02	0.0	4.019700e-01	-5.211839e-02	0.0	3.865400e-01	-5.230586e-02	0.0	3.712300e-01	-5.246816e-02	0.0	3.560400e-01	-5.260130e-02	0.0	3.409900e-01	-5.270061e-02	0.0	3.261100e-01	-5.276113e-02	0.0	3.114000e-01	-5.277790e-02	0.0	2.968700e-01	-5.274582e-02	0.0	2.825500e-01	-5.265996e-02	0.0	2.684500e-01	-5.251559e-02	0.0	2.545700e-01	-5.230801e-02	0.0	2.409400e-01	-5.203324e-02	0.0	2.275700e-01	-5.168749e-02	0.0	2.144700e-01	-5.126729e-02	0.0	2.016600e-01	-5.076993e-02	0.0	1.891400e-01	-5.019238e-02	0.0	1.769300e-01	-4.953284e-02	0.0	1.650400e-01	-4.878952e-02	0.0	1.534900e-01	-4.796177e-02	0.0	1.422900e-01	-4.704883e-02	0.0	1.314400e-01	-4.604934e-02	0.0	1.209500e-01	-4.496296e-02	0.0	1.108500e-01	-4.379208e-02	0.0	1.011300e-01	-4.253503e-02	0.0	9.181000e-02	-4.119389e-02	0.0	8.290000e-02	-3.976997e-02	0.0	7.440000e-02	-3.826304e-02	0.0	6.633000e-02	-3.667657e-02	0.0	5.869000e-02	-3.501058e-02	0.0	5.149000e-02	-3.326708e-02	0.0	4.474000e-02	-3.144844e-02	0.0	3.844000e-02	-2.955433e-02	0.0	3.260000e-02	-2.758711e-02	0.0	2.723000e-02	-2.554977e-02	0.0	2.232000e-02	-2.343708e-02	0.0	1.790000e-02	-2.126113e-02	0.0	1.395000e-02	-1.901092e-02	0.0	1.049000e-02	-1.669561e-02	0.0	7.520000e-03	-1.431461e-02	0.0	5.040000e-03	-1.186637e-02	0.0	3.050000e-03	-9.347302e-03	0.0	1.560000e-03	-6.769269e-03	0.0	5.600000e-04	-4.108233e-03	0.0	6.000000e-05	-1.363608e-03	0.0	0.000000e+00	0.000000e+00	0.0	6.000000e-05	1.350236e-03	0.0	5.600000e-04	4.050826e-03	0.0	1.560000e-03	6.663226e-03	0.0	3.050000e-03	9.195473e-03	0.0	5.040000e-03	1.167583e-02	0.0	7.520000e-03	1.409653e-02	0.0	1.049000e-02	1.646478e-02	0.0	1.395000e-02	1.878581e-02	0.0	1.790000e-02	2.106403e-02	0.0	2.232000e-02	2.329392e-02	0.0	2.723000e-02	2.549065e-02	0.0	3.260000e-02	2.764558e-02	0.0	3.844000e-02	2.976800e-02	0.0	4.474000e-02	3.185849e-02	0.0	5.149000e-02	3.391797e-02	0.0	5.869000e-02	3.595015e-02	0.0	6.633000e-02	3.795531e-02	0.0	7.440000e-02	3.993367e-02	0.0	8.290000e-02	4.188739e-02	0.0	9.181000e-02	4.381361e-02	0.0	1.011300e-01	4.571359e-02	0.0	1.108500e-01	4.758588e-02	0.0	1.209500e-01	4.942683e-02	0.0	1.314400e-01	5.123782e-02	0.0	1.422900e-01	5.301272e-02	0.0	1.534900e-01	5.474871e-02	0.0	1.650400e-01	5.644398e-02	0.0	1.769300e-01	5.809472e-02	0.0	1.891400e-01	5.969553e-02	0.0	2.016600e-01	6.124223e-02	0.0	2.144700e-01	6.272926e-02	0.0	2.275700e-01	6.415328e-02	0.0	2.409400e-01	6.550849e-02	0.0	2.545700e-01	6.679020e-02	0.0	2.684500e-01	6.799357e-02	0.0	2.825500e-01	6.911218e-02	0.0	2.968700e-01	7.014214e-02	0.0	3.114000e-01	7.107860e-02	0.0	3.261100e-01	7.191555e-02	0.0	3.409900e-01	7.264840e-02	0.0	3.560400e-01	7.327286e-02	0.0	3.712300e-01	7.378330e-02	0.0	3.865400e-01	7.417483e-02	0.0	4.019700e-01	7.444303e-02	0.0	4.175000e-01	7.458295e-02	0.0	4.331100e-01	7.458992e-02	0.0	4.487800e-01	7.445955e-02	0.0	4.645100e-01	7.418745e-02	0.0	4.802700e-01	7.376991e-02	0.0	4.960500e-01	7.320341e-02	0.0	5.118400e-01	7.248482e-02	0.0	5.276100e-01	7.161270e-02	0.0	5.433600e-01	7.058503e-02	0.0	5.590600e-01	6.940265e-02	0.0	5.747100e-01	6.806549e-02	0.0	5.902800e-01	6.657731e-02	0.0	6.057600e-01	6.494175e-02	0.0	6.211300e-01	6.316504e-02	0.0	6.363800e-01	6.125402e-02	0.0	6.515000e-01	5.921698e-02	0.0	6.664700e-01	5.706516e-02	0.0	6.812700e-01	5.481151e-02	0.0	6.958900e-01	5.246892e-02	0.0	7.103200e-01	5.005129e-02	0.0	7.245300e-01	4.757686e-02	0.0	7.385200e-01	4.505941e-02	0.0	7.522800e-01	4.251466e-02	0.0	7.657800e-01	3.996213e-02	0.0	7.790100e-01	3.741749e-02	0.0	7.919700e-01	3.489399e-02	0.0	8.046400e-01	3.240819e-02	0.0	8.170100e-01	2.997405e-02	0.0	8.290500e-01	2.760884e-02	0.0	8.407700e-01	2.532127e-02	0.0	8.521600e-01	2.312328e-02	0.0	8.631800e-01	2.103157e-02	0.0	8.738500e-01	1.905016e-02	0.0	8.841500e-01	1.718895e-02	0.0	8.940600e-01	1.545535e-02	0.0	9.035800e-01	1.385019e-02	0.0	9.127000e-01	1.237271e-02	0.0	9.214000e-01	1.102010e-02	0.0	9.296900e-01	9.781662e-03	0.0	9.375400e-01	8.650401e-03	0.0	9.449600e-01	7.612208e-03	0.0	9.519400e-01	6.656126e-03	0.0	9.584700e-01	5.772587e-03	0.0	9.645400e-01	4.954359e-03	0.0	9.701500e-01	4.195689e-03	0.0	9.752800e-01	3.496291e-03	0.0	9.799500e-01	2.852720e-03	0.0	9.841300e-01	2.270023e-03	0.0	9.878400e-01	1.747228e-03	0.0	9.910500e-01	1.290667e-03	0.0	9.937800e-01	8.994899e-04	0.0	9.960200e-01	5.767420e-04	0.0	9.977600e-01	3.250644e-04	0.0	9.990000e-01	1.452495e-04	0.0	9.997500e-01	3.632890e-05	0.0	1.000000e+00	0.000000e+00	0.0	1.984229e+01	2.506660e+00	0.0	1.937166e+01	4.973800e+00	0.0	1.859553e+01	7.362490e+00	0.0	1.752613e+01	9.635070e+00	0.0	1.618034e+01	1.175571e+01	0.0	1.457937e+01	1.369094e+01	0.0	1.274848e+01	1.541027e+01	0.0	1.071654e+01	1.688656e+01	0.0	8.515590e+00	1.809654e+01	0.0	6.180340e+00	1.902113e+01	0.0	3.747630e+00	1.964575e+01	0.0	1.255810e+00	1.996053e+01	0.0	-1.255810e+00	1.996053e+01	0.0	-3.747630e+00	1.964574e+01	0.0	-6.180340e+00	1.902113e+01	0.0	-8.515590e+00	1.809654e+01	0.0	-1.071654e+01	1.688656e+01	0.0	-1.274848e+01	1.541026e+01	0.0	-1.457937e+01	1.369094e+01	0.0	-1.618034e+01	1.175570e+01	0.0	-1.752613e+01	9.635070e+00	0.0	-1.859553e+01	7.362490e+00	0.0	-1.937166e+01	4.973800e+00	0.0	-1.984229e+01	2.506660e+00	0.0	-2.000000e+01	0.000000e+00	0.0	-1.984229e+01	-2.506670e+00	0.0	-1.937166e+01	-4.973800e+00	0.0	-1.859553e+01	-7.362490e+00	0.0	-1.752613e+01	-9.635080e+00	0.0	-1.618034e+01	-1.175571e+01	0.0	-1.457937e+01	-1.369094e+01	0.0	-1.274848e+01	-1.541027e+01	0.0	-1.071653e+01	-1.688656e+01	0.0	-8.515580e+00	-1.809654e+01	0.0	-6.180340e+00	-1.902113e+01	0.0	-3.747620e+00	-1.964575e+01	0.0	-1.255810e+00	-1.996053e+01	0.0	1.255810e+00	-1.996053e+01	0.0	3.747630e+00	-1.964574e+01	0.0	6.180340e+00	-1.902113e+01	0.0	8.515590e+00	-1.809654e+01	0.0	1.071654e+01	-1.688656e+01	0.0	1.274848e+01	-1.541026e+01	0.0	1.457937e+01	-1.369094e+01	0.0	1.618034e+01	-1.175570e+01	0.0	1.752614e+01	-9.635070e+00	0.0	1.859553e+01	-7.362490e+00	0.0	1.937166e+01	-4.973790e+00	0.0	1.984229e+01	-2.506660e+00	0.0	2.000000e+01	0.000000e+00	0.0	6.093892e-02	-4.285144e-02	0.0	6.600410e-01	-5.844939e-02	0.0	4.255297e-01	8.863687e-02	0.0	6.904536e-01	6.677179e-02	0.0	3.791252e-01	-6.656260e-02	0.0	9.994589e-01	-7.258723e-04	0.0	9.985402e-01	-1.320872e-03	0.0	7.738251e-01	-4.634860e-02	0.0	6.897588e-01	-5.606349e-02	0.0	-1.367138e-03	6.233161e-03	0.0	7.467650e-01	-4.997311e-02	0.0	5.838090e-01	8.122916e-02	0.0	9.927651e-01	-3.598793e-03	0.0	9.898616e-01	-4.480982e-03	0.0	5.994275e-01	7.958836e-02	0.0	7.187102e-01	-5.322760e-02	0.0	-1.548094e-03	7.305687e-04	0.0	9.864673e-01	-5.441292e-03	0.0	9.825916e-01	-6.470515e-03	0.0	-1.358171e-03	-6.336027e-03	0.0	6.449375e-01	-5.947833e-02	0.0	8.244939e-01	-3.842106e-02	0.0	7.997632e-01	-4.246746e-02	0.0	3.482204e-01	8.660152e-02	0.0	8.478910e-01	-3.434813e-02	0.0	2.468390e-01	7.862192e-02	0.0	8.698983e-01	-3.032503e-02	0.0	1.001408e-02	2.079824e-02	0.0	8.904116e-01	-2.642047e-02	0.0	7.722818e-02	-4.682321e-02	0.0	9.093595e-01	-2.267674e-02	0.0	-1.865007e-03	-3.138557e-03	0.0	9.422484e-01	-1.580904e-02	0.0	9.266631e-01	-1.912583e-02	0.0	1.806769e-02	-2.637803e-02	0.0	4.256782e-01	-6.623083e-02	0.0	8.590773e-01	-3.232303e-02	0.0	9.560748e-01	-1.276843e-02	0.0	9.782290e-01	-7.589010e-03	0.0	9.680882e-01	-1.002215e-02	0.0	1.584746e-01	-5.900398e-02	0.0	9.000881e-01	-2.452666e-02	0.0	7.604299e-01	-4.820093e-02	0.0	9.971132e-01	-2.058079e-03	0.0	5.988429e-01	-6.197001e-02	0.0	4.413590e-01	-6.604490e-02	0.0	5.361230e-01	-6.418097e-02	0.0	4.728882e-01	-6.557080e-02	0.0	5.045102e-01	-6.495629e-02	0.0	4.886866e-01	-6.528085e-02	0.0	1.251652e-01	-5.514410e-02	0.0	2.799454e-02	-3.148915e-02	0.0	3.945492e-01	-6.649285e-02	0.0	4.640172e-02	-3.855324e-02	0.0	4.100682e-01	-6.638196e-02	0.0	3.187978e-01	-6.636792e-02	0.0	3.486567e-01	-6.657206e-02	0.0	3.367005e-02	-3.391128e-02	0.0	2.896281e-01	-6.592628e-02	0.0	9.346743e-01	-1.743395e-02	0.0	1.470184e-01	-5.780948e-02	0.0	1.948400e-01	-6.200962e-02	0.0	8.600599e-02	-4.867547e-02	0.0	1.048018e-01	-5.210645e-02	0.0	5.676108e-01	-6.321237e-02	0.0	1.702734e-01	-6.010386e-02	0.0	6.143295e-01	-6.122907e-02	0.0	8.803501e-01	-2.835590e-02	0.0	2.280418e-02	-2.897635e-02	0.0	9.951875e-01	-2.803889e-03	0.0	6.796488e-03	-1.820110e-02	0.0	1.798544e-02	2.626178e-02	0.0	9.182203e-01	-2.087471e-02	0.0	9.49388
[...]
POINT_DATA 5233

SCALARS Conservative_1 float 1
LOOKUP_TABLE default
1.417334e-02	6.445904e-03	5.094549e-03	4.093117e-03	3.458657e-03	2.981420e-03	2.609627e-03	2.314389e-03	2.080121e-03	1.893488e-03	1.746323e-03	1.631669e-03	1.544480e-03	1.480065e-03	1.434932e-03	1.404371e-03	1.387118e-03	1.375539e-03	1.369972e-03	1.370403e-03	1.381637e-03	1.398611e-03	1.424162e-03	1.460262e-03	1.504165e-03	1.558722e-03	1.618339e-03	1.685180e-03	1.753164e-03	1.821149e-03	1.886673e-03	1.942310e-03	1.991118e-03	2.022425e-03	2.042854e-03	2.044366e-03	2.034047e-03	2.006146e-03	1.968437e-03	1.916266e-03	1.858731e-03	1.791777e-03	1.723714e-03	1.651125e-03	1.580995e-03	1.510226e-03	1.444254e-03	1.380712e-03	1.322836e-03	1.269456e-03	1.221762e-03	1.178868e-03	1.140790e-03	1.108384e-03	1.079350e-03	1.055649e-03	1.034171e-03	1.016607e-03	9.999538e-04	9.858443e-04	9.713765e-04	9.579068e-04	9.426071e-04	9.272368e-04	9.086306e-04	8.885866e-04	8.640884e-04	8.366980e-04	8.040823e-04	7.670930e-04	7.243249e-04	6.753708e-04	6.202086e-04	5.574702e-04	4.875413e-04	4.093067e-04	3.219106e-04	2.255906e-04	1.187814e-04	1.424917e-06	-1.281057e-04	-2.701403e-04	-4.261032e-04	-5.968909e-04	-7.844699e-04	-9.893687e-04	-1.214327e-03	-1.459571e-03	-1.726949e-03	-2.015663e-03	-2.323899e-03	-2.638370e-03	-2.958565e-03	-3.277147e-03	-3.415904e-03	-3.214955e-03	-2.946833e-03	-2.701121e-03	-2.251403e-03	-1.812194e-03	-1.427788e-03	-4.694885e-04	6.587556e-04	8.948904e-04	2.207882e-03	6.216513e-03	1.002173e-02	1.092360e-02	9.871578e-03	8.621314e-03	7.639929e-03	6.784855e-03	5.999749e-03	5.296631e-03	4.681758e-03	4.156283e-03	3.702455e-03	3.313131e-03	2.977168e-03	2.680351e-03	2.423256e-03	2.190096e-03	1.978694e-03	1.785452e-03	1.610546e-03	1.454706e-03	1.314544e-03	1.185768e-03	1.071151e-03	9.661639e-04	8.759551e-04	7.957250e-04	7.224610e-04	6.533376e-04	5.833929e-04	5.231067e-04	4.796918e-04	4.739823e-04	5.101793e-04	6.182065e-04	8.182198e-04	1.066827e-03	1.272165e-03	1.345171e-03	1.308531e-03	1.234288e-03	1.154372e-03	1.070877e-03	9.796155e-04	8.732781e-04	7.588596e-04	6.339688e-04	5.068555e-04	3.731163e-04	2.327498e-04	9.100130e-05	-5.833844e-05	-2.055234e-04	-3.539419e-04	-5.031764e-04	-6.485209e-04	-7.952113e-04	-9.354318e-04	-1.076307e-03	-1.209417e-03	-1.342423e-03	-1.467113e-03	-1.591118e-03	-1.706728e-03	-1.821737e-03	-1.928900e-03	-2.036237e-03	-2.135534e-03	-2.235524e-03	-2.331631e-03	-2.425095e-03	-2.517481e-03	-2.608086e-03	-2.703187e-03	-2.800135e-03	-2.906754e-03	-3.014513e-03	-3.123924e-03	-3.235623e-03	-3.360093e-03	-3.497326e-03	-3.652764e-03	-3.827170e-03	-4.025301e-03	-4.250652e-03	-4.509188e-03	-4.807601e-03	-5.155340e-03	-5.564150e-03	-6.051337e-03	-6.641626e-03	-7.505914e-03	-8.320347e-03	-1.454460e-02	-6.590895e-04	-8.918161e-06	-8.614581e-06	-8.179478e-06	-7.731498e-06	-7.124818e-06	-6.428238e-06	-5.541994e-06	-4.491906e-06	-3.258063e-06	-1.866682e-06	4.794124e-09	2.272173e-06	4.870843e-06	7.349131e-06	9.028397e-06	1.036516e-05	1.092709e-05	1.095218e-05	1.056884e-05	1.005153e-05	9.603721e-06	8.079443e-06	8.846691e-06	1.550346e-05	1.061233e-05	8.910059e-06	1.046447e-05	8.676161e-06	4.406594e-07	1.709890e-07	-1.639768e-07	-8.921066e-07	-1.347025e-06	-1.949326e-06	-2.684182e-06	-3.452939e-06	-3.814183e-06	-4.594879e-06	-4.746744e-06	-5.724305e-06	-7.004721e-06	-7.867633e-06	-8.538113e-06	-8.994489e-06	-9.289220e-06	-9.468304e-06	-9.533137e-06	-9.468520e-06	-9.288404e-06	-9.165666e-06	-6.332975e-04	1.713573e-03	1.473845e-03	-6.676398e-04	8.917766e-04	1.070721e-02	7.328782e-03	1.711667e-03	1.782795e-03	-4.296034e-04	1.780804e-03	4.005067e-04	3.419141e-03	2.895875e-03	2.513532e-04	1.806827e-03	-1.719595e-03	2.510622e-03	2.218740e-03	-2.767248e-03	1.666343e-03	1.509738e-03	1.614039e-03	1.260625e-03	1.418790e-03	1.162831e-03	1.355126e-03	8.830801e-03	1.327958e-03	-3.280528e-04	1.335782e-03	-2.473271e-03	1.394333e-03	1.352367e-03	-2.201681e-03	9.580152e-04	1.382460e-03	1.493046e-03	1.992390e-03	1.678484e-03	4.466180e-04	1.328567e-03	1.752107e-03	5.295807e-03	1.490692e-03	9.869739e-04	1.248437e-03	1.056519e-03	1.144204e-03	1.098379e-03	2.266214e-04	-1.670726e-03	9.108458e-04	-9.978311e-04	9.332940e-04	8.284544e-04	8.584195e-04	-1.428613e-03	7.965458e-04	1.368585e-03	3.814797e-04	6.023400e-04	-1.951185e-04	3.623652e-05	1.366169e-03	5.051062e-04	1.553033e-03	1.336322e-03	-1.928832e-03	4.163651e-03	-3.026414e-03	8.179924e-03	1.343734e-03	1.434796e-03	1.815715e-03	1.400050e-04	1.460775e-03	7.345452e-04	1.306391e-03	1.800648e-03	1.665596e-03	1.362779e-04	6.773752e-04	1.428855e-03	1.754100e-03	-8.079351e-04	-3.241282e-03	-2.480660e-03	8.740342e-04	5.567160e-04	1.501312e-02	7.082411e-04	-7.383952e-05	8.126148e-04	7.581856e-04	1.019501e-03	1.801799e-03	-1.298703e-03	-2.983194e-03	8.217251e-04	-2.040884e-03	6.708470e-03	4.428949e-03	5.457942e-03	2.397545e-03	1.511684e-03	-7.812354e-03	9.491139e-04	1.270345e-03	-4.118920e-03	-3.712446e-03	-2.593786e-03	1.175896e-03	1.418828e-03	1.506718e-03	-3.037747e-03	-2.819286e-03	3.328163e-03	-4.370451e-03	-3.545388e-03	-3.266345e-03	2.809587e-03	4.008816e-03	1.011940e-03	1.106646e-03	1.657347e-03	1.016358e-03	1.351427e-03	1.528944e-03	1.908487e-03	2.218854e-03	-5.648331e-05	1.449813e-03	1.288269e-03	-3.649899e-04	5.479710e-04	-1.235752e-03	-9.592327e-04	-1.737741e-03	-1.495292e-03	-2.179830e-03	-1.965879e-03	-2.704646e-03	-2.386218e-03	-3.398400e-03	-2.931091e-03	-3.901752e-03	-2.284074e-03	-2.489128e-03	-1.852382e-03	-2.073421e-03	-1.366704e-03	-1.617566e-03	-8.140778e-04	-1.098470e-03	-2.104182e-04	-5.164160e-04	6.879297e-04	9.782605e-05	1.362649e-03	1.223006e-03	1.776610e-03	1.547921e-03	4.910690e-03	2.055805e-03	9.039849e-03	6.065108e-03	6.425679e-04	2.131231e-03	1.572583e-03	1.560857e-03	8.430139e-04	1.194578e-03	2.176318e-04	7.380084e-03	6.089652e-03	3.052636e-03	3.644396e-03	1.053315e-03	2.593505e-03	-4.666329e-03	-5.019129e-03	9.924709e-04	-5.453786e-03	-6.007272e-03	1.105149e-03	1.424157e-03	-3.148948e-03	-1.669224e-02	-9.626056e-03	-1.247075e-02	1.611135e-03	-1.204499e-03	-6.748753e-03	1.066904e-03	-3.216375e-03	-2.754455e-03	-4.738773e-04	3.081934e-04	7.781344e-04	3.660404e-03	-6.557731e-04	-1.296215e-03	6.507925e-04	1.564168e-03	1.248312e-03	-2.791145e-03	6.929915e-04	1.544175e-03	1.497585e-03	2.712326e-03	7.033317e-04	1.286692e-03	1.348204e-03	-2.619913e-04	-2.769742e-03	5.196712e-04	-2.330637e-03	1.480462e-03	2.755067e-04	1.578587e-03	1.475319e-03	8.690007e-04	-3.854455e-04	7.714525e-04	1.236920e-03	1.461531e-03	5.587719e-03	6.944126e-03	-2.543940e-04	-2.012035e-03	2.790799e-03	-4.090516e-04	2.101747e-03	-2.337487e-03	-5.223173e-03	1.713337e-03	1.234979e-03	-3.386972e-03	-2.443995e-03	-5.744969e-03	-3.545796e-03	-4.463543e-03	1.629339e-03	1.607752e-03	1.687008e-03	2.972154e-03	1.511692e-03	4.815207e-04	7.326443e-03	2.340178e-03	4.660351e-03	-3.935084e-03	-6.415242e-03	-2.549526e-03	3.357415e-04	-6.718149e-03	-8.372035e-03	-7.336258e-03	2.424078e-03	-3.039854e-04	-3.000981e-03	-2.237250e-03	-1.927802e-03	-2.085811e-03	3.682282e-03	-6.682292e-04	5.737873e-03	3.807805e-03	1.679156e-03	1.114746e-03	2.357583e-03	1.248878e-03	5.363852e-04	3.176514e-03	-2.557877e-03	8.400117e-04	1.696882e-03	1.313642e-03	1.498082e-03	1.263811e-03	1.239896e-03	-5.208096e-04	1.240011e-03	1.263502e-03	1.349116e-03	-1.614898e-03	1.404633e-03	1.579902e-03	2.087232e-03	1.310089e-04	1.552807e-03	1.529585e-03	4.693481e-03	9.008065e-04	9.361688e-04	9.762445e-04	-1.845590e-03	7.913545e-04	8.151439e-04	7.187098e-04	-1.193612e-03	1.281614e-03	1.309319e-03	2.069522e-04	-1.490419e-04	1.167807e-03	1.327888e-03	1.708948e-03	1.874049e-03	1.578534e-03	1.572566e-03	-4.676932e-05	4.722657e-05	1.219864e-03	1.275703e-03	-1.004834e-03	-8.292934e-04	-2.568649e-03	7.356267e-04	7.523353e-04	3.906254e-04	4.388234e-04	5.523722e-04	5.821275e-04	6.697954e-04	6.863863e-04	6.075995e-04	-1.711635e-03	-3.098652e-03	5.075013e-03	-4.803366e-03	1.112548e-03	1.351161e-03	1.450899e-03	1.536157e-03	-4.176600e-03	-3.727362e-03	-2.888073e-03	1.601950e-03	1.650756e-03	1.730884e-03	-2.772886e-03	-3.244551e-03	3.952284e-03	4.285121e-03	1.575329e-03	1.531222e-03	2.214810e-03	2.476796e-03	2.626210e-03	-1.538195e-03	-1.005604e-03	-8.638149e-04	-1.413681e-03	-1.899513e-03	-2.659583e-03	-2.231608e-03	-2.122172e-03	-1.780997e-03	-1.663734e-03	-1.280911e-03	-1.147461e-03	-7.143520e-04	-5.650481e-04	-9.448576e-05	6.330685e-05	8.392140e-04	9.799726e-04	2.234606e-04	3.818574e-04	1.751455e-03	1.825814e-03	1.907665e-03	2.000696e-03	7.405792e-03	5.526203e-03	5.997614e-03	1.424135e-03	1.384105e-03	1.019137e-03	1.066456e-03	1.863068e-04	6.470744e-03	3.175536e-03	3.403208e-03	1.523990e-03	1.492366e-03	1.769334e-03	1.782002e-03	-3.118255e-03	-2.999502e-03	1.381800e-03	1.429059e-03	-1.396777e-03	-2.982825e-03	6.311361e-04	-2.579440e-03	6.645702e-04	5.322529e-04	1.306273e-03	9.514811e-04	1.148091e-03	-5.117908e-03	-4.739343e-03	-3.501021e-03	4.728712e-04	-5.526155e-03	-1.038160e-02	-9.683710e-03	4.132188e-03	-1.608935e-03	-1.971322e-03	-1.834245e-03	-3.273666e-04	1.169818e-03	2.604790e-03	9.204816e-04	7.812390e-03	-2.764128e-03	1.372538e-03	-2.912439e-03	1.378374e-03	-2.184394e-03	1.140229e-03	-2.587760e-03	5.892615e-04	1.154756e-03	1.355363e-03	2.949452e-03	-2.395282e-03	-4.139752e-03	1.333251e-03	-3.188553e-03	-3.689674e-05	-6.072817e-03	1.459547e-03	1.898931e-03	2.089338e-03	2.502080e-03	3.960618e-03	-1.041941e-02	-2.765436e-03	-8.788393e-04	6.082109e-03	-1.382297e-03	1.435695e-03	-4.404007e-04	-2.060473e-03	1.708787e-04	7.660198e-04	-1.757839e-03	4.660019e-03	-1.835730e-03	-1.352007e-03	-1.968716e-04	-4.418219e-03	-3.336828e-03	-2.373278e-03	-2.268097e-03	2.033237e-03	1.910443e-03	2.022007e-03	3.151752e-03	1.302718e-03	1.333662e-03	3.647197e-04	5.850387e-03	2.612127e-03	-3.896382e-03	-6.843981e-03	2.456008e-03	-4.258261e-04	-2.900802e-03	-2.351513e-03	-1.553100e-03	6.708043e-03	7.765059e-03	1.542581e-03	2.298165e-03	7.676278e-04	7.373645e-04	1.838872e-03	1.198201e-03	1.173213e-03	1.130897e-03	1.127406e-03	-6.992828e-04	-5.645764e-04	1.126777e-03	1.135143e-03	1.285836e-03	1.350918e-03	2.048329e-03	1.352564e-03	1.335725e-03	3.427689e-03	7.991485e-04	8.317308e-04	6.854802e-04	7.108861e-04	-1.359563e-03	1.198602e-03	1.235535e-03	3.685621e-05	1.069597e-04	9.974883e-04	1.042800e-03	1.676034e-03	1.843461e-03	1.381102e-03	1.373484e-03	-2.234454e-04	-1.281137e-04	-4.083588e-05	1.090976e-03	1.136960e-03	-1.176924e-03	-1.005076e-03	-8.448966e-04	6.059150e-04	6.254150e-04	6.431588e-04	2.276777e-04	2.785184e-04	3.251479e-04	4.021688e-04	4.329198e-04	5.529213e-04	5.703023e-04	4.631233e-04	4.790898e-03	1.568525e-03	1.660984e-03	-3.686754e-03	1.731627e-03	1.786929e-03	1.820026e-03	1.861733e-03	-2.699242e-03	4.215144e-03	4.495890e-03	1.918240e-03	1.965380e-03	2.730533e-03	2.857724e-03	2.998030e-03	-8.059371e-04	-2.588366e-03	-2.477100e-03	-2.164553e-03	-2.055339e-03	-1.947409e-03	-1.714302e-03	-1.601331e-03	-1.479914e-03	-1.223228e-03	-1.088650e-03	-9.496066e-04	-6.587929e-04	-5.081567e-04	-3.534060e-04	1.229588e-04	1.065344e-03	1.202087e-03	2.848871e-04	4.453433e-04	6.048236e-04	2.089011e-03	2.159450e-03	2.233024e-03	2.314687e-03	2.402000e-03	5.095571e-03	5.400875e-03	1.281518e-03	1.253729e-03	1.223617e-03	8.678940e-04	9.104358e-04	5.693075e-03	5.940597e-03	3.324611e-03	3.515114e-03	3.727920e-03	1.961348e-03	1.912526e-03	1.995375e-03	2.073528e-03	-3.056078e-03	-2.931166e-03	-2.815560e-03	1.183927e-03	1.226596e-03	1.268104e-03	4.881100e-04	5.125036e-04	-2.563056e-03	-3.859761e-04	-5.496116e-03	-4.009252e-03	8.714275e-04	-1.808869e-03	4.364328e-03	1.050992e-03	1.079859e-03	-1.482753e-03	-4.820212e-03	1.592793e-03	-2.702379e-03	4.674470e-03	-2.527084e-03	-3.258467e-03	-5.112302e-03	-8.965645e-04	1.222283e-04	-3.232348e-04	-5.172291e-03	2.013732e-03	1.164529e-03	7.677801e-05	-1.847088e-03	5.765282e-04	-4.888675e-04	6.523889e-04	4.309758e-04	-4.251045e-03	1.078464e-03	-3.112560e-03	-2.980188e-03	-1.189705e-03	2.831826e-03	2.194600e-03	2.083006e-03	4.179152e-03	1.039502e-03	-7.108156e-03	-4.521413e-03	2.803643e-03	1.452518e-03	-2.031971e-03	1.217419e-03	-2.645934e-03	1.209790e-03	1.232140e-03	-2.212223e-03	2.303154e-03	-2.382376e-03	-1.679025e-03	1.482830e-03	2.325608e-03	-1.383326e-03	3.733922e-03	-3.199820e-05	-2.201904e-03	2.329893e-03	2.274268e-03	2.221303e-03	1.177779e-03	1.184048e-03	-3.789055e-03	2.189141e-03	6.438004e-04	-2.728677e-03	-2.421263e-03	-1.658674e-03	1.353971e-03	1.884766e-03	9.176929e-04	1.071462e-03	1.050515e-03	1.027580e-03	1.023655e-03	-7.231849e-04	-6.013961e-04	1.020525e-03	1.025416e-03	1.038530e-03	1.207047e-03	1.272507e-03	1.207634e-03	1.173140e-03	2.511831e-03	6.849291e-04	7.184190e-04	5.973372e-04	6.261726e-04	1.113778e-03	1.153995e-03	-4.905303e-05	1.278136e-05	9.015079e-04	1.572138e-03	1.716490e-03	1.221804e-03	1.205486e-03	-2.898577e-04	-2.042741e-04	-1.203314e-04	9.547483e-04	9.842284e-04	-1.313978e-03	-1.151069e-03	-9.952458e-04	-8.537508e-04	4.907843e-04	5.119406e-04	5.311341e-04	5.536529e-04	1.270100e-04	1.785552e-04	2.201523e-04	2.615628e-04	2.949746e-04	4.721780e-04	4.506758e-04	3.287806e-04	1.704056e-03	-3.593334e-03	-3.417860e-03	1.782095e-03	1.847395e-03	1.894683e-03	1.925517e-03	1.947495e-03	4.374629e-03	4.561368e-03	2.213446e-03	2.257722e-03	2.942821e-03	3.056851e-03	3.181666e-03	3.316816e-03	-2.508676e-03	-2.403315e-03	-2.299813e-03	-2.099862e-03	-1.997335e-03	-1.890079e-03	-1.783561e-03	-1.557382e-03	-1.436126e-03	-1.327890e-03	-1.066844e-03	-9.219994e-04	-7.905888e-04	-6.391638e-04	-4.994182e-04	-3.420031e-04	-1.935668e-04	1.344770e-03	1.208517e-03	2.842377e-04	4.423333e-04	6.049218e-04	7.675435e-04	2.326782e-03	2.399904e-03	2.477993e-03	2.559119e-03	2.640774e-03	2.732401e-03	4.735847e-03	4.896120e-03	1.135615e-03	1.108712e-03	1.090411e-03	7.474955e-04	7.934187e-04	8.219834e-04	5.031109e-03	5.101628e-03	5.038160e-03	3.465022e-03	3.626634e-03	3.806977e-03	3.992101e-03	1.979375e-03	2.041560e-03	2.135315e-03	2.257024e-03	-2.619668e-03	-2.853279e-03	-2.738829e-03	1.038266e-03	1.063838e-03	1.115190e-03	1.133146e-03	3.567323e-04	3.848665e-04	4.072575e-04	-2.034948e-03	-4.941001e-03	1.244509e-03	-7.745694e-03	-2.183513e-03	1.089068e-03	-4.308170e-04	-2.311212e-03	-3.642314e-03	-2.492704e-03	-1.557718e-03	-3.083409e-06	3.084283e-03	2.957005e-03	-2.270448e-04	-1.760037e-03	-2.084301e-03	-2.185308e-03	-2.081879e-03	-2.562400e-03	2.282365e-03	2.439818e-03	1.326811e-03	1.790466e-03	9.997902e-04	1.047944e-03	5.036591e-04	-4.454505e-03	-2.459118e-03	-2.773346e-03	1.239117e-03	1.483707e-03	1.749536e-04	-9.787541e-04	1.670178e-03	7.712418e-04	2.351843e-03	-4.247596e-03	-5.249223e-04	-8.042138e-03	-3.828483e-03	-2.246183e-03	4.654570e-03	5.200664e-03	9.809462e-04	-1.410058e-03	-2.529134e-03	3.743000e-03	-2.405585e-03	-3.023266e-03	-8.484586e-04	-3.015039e-03	-4.709757e-04	-1.882571e-03	3.793214e-04	3.479943e-04	-4.023520e-03	1.028572e-03	-2.896824e-03	1.646279e-03	1.070353e-03	-1.336768e-03	2.487695e-03	2.459417e-03	2.403291e-03	1.036433e-03	1.833782e-03	6.702066e-04	-2.430283e-03	-1.719427e-03	9.657501e-04	9.634145e-04	9.450190e-04	9.460005e-04	-6.287758e-04	-7.381785e-04	9.327743e-04	9.404234e-04	9.419507e-04	9.495901e-04	1.116064e-03	1.174914e-03	1.071208e-03	1.912849e-03	5.918416e-04	6.155971e-04	5.355819e-04	5.538929e-04	1.029170e-03	1.067660e-03	-1.204815e-04	-5.001538e-05	1.422453e-03	1.529849e-03	1.077061e-03	-3.420848e-04	-2.525312e-04	-1.854162e-04	8.442906e-04	-1.262489e-03	-1.116089e-03	-9.802204e-04	-8.556268e-04	3.918522e-04	4.216878e-04	4.343858e-04	4.653416e-04	4.822728e-04	5.850852e-05	9.458059e-05	1.475278e-04	1.751400e-04	2.202717e-04	-3.469271e-03	-3.308862e-03	-3.161385e-03	1.774438e-03	1.839989e-03	1.906803e-03	1.944663e-03	1.980399e-03	4.235697e-03	4.322680e-03	2.391223e-03	2.391648e-03	3.177710e-03	3.289411e-03	3.421969e-03	-2.343318e-03	-2.253565e-03	-2.149155e-03	-2.062968e-03	-1.952412e-03	-1.857628e-03	-1.742942e-03	-1.587040e-03	-1.405432e-03	-1.229830e-03	-7.065469e-04	-4.243288e-04	-1.293552e-04	4.849117e-04	7.896485e-04	2.448287e-03	2.515862e-03	2.605103e-03	2.690899e-03	2.773503e-03	2.871516e-03	2.969480e-03	4.381609e-03	4.423964e-03	1.011265e-03	1.004538e-03	9.855331e-04	6.457240e-04	7.014551e-04	4.434713e-03	4.366955e-03	4.166704e-03	3.555520e-03	3.694382e-03	3.844858e-03	3.986572e-03	4.113236e-03	2.003855e-03	2.043863e-03	2.090869e-03	2.198661e-03	-2.661050e-03	-2.556311e-03	9.166822e-04	9.828167e-04	2.429093e-04	2.827633e-04	2.996595e-04	3.338066e-04	5.343910e-03	-8.087073e-03	-2.104539e-03	-2.042837e-03	1.380641e-03	1.161326e-03	-3.773558e-03	-1.259649e-03	-2.912289e-03	2.194448e-03	1.292323e-03	-2.407013e-03	-1.459057e-03	-1.989651e-03	2.276929e-03	-4.817353e-03	1.487284e-03	-7.752624e-04	-1.864685e-03	1.103587e-03	6.374486e-04	-3.604177e-03	2.973196e-04	9.137269e-04	8.872588e-04	8.261482e-04	-4.612714e-04	-3.479199e-05	-2.343601e-03	4.592743e-04	-6.428402e-04	-5.501083e-04	3.275793e-03	-3.307920e-03	-2.345110e-03	-1.663957e-03	2.336300e-03	1.051424e-03	-7.629141e-03	-3.450349e-03	-2.149656e-03	-2.429034e-03	1.374641e-03	9.516870e-04	1.562538e-03	1.747542e-03	-3.963394e-03	-1.779795e-03	-4.914047e-03	-2.332831e-03	4.706226e-03	-1.333120e-03	-2.242661e-03	-2.183182e-03	1.129570e-03	-1.591545e-03	-2.797841e-03	-2.689822e-03	1.347346e-03	2.480849e-03	2.513746e-03	9.421599e-04	6.068973e-04	-1.620840e-04	-1.734378e-03	8.753041e-04	8.639043e-04	-7.449677e-04	8.622875e-04	8.617192e-04	1.006100e-03	1.475578e-03	5.120645e-04	9.364630e-04	9.682453e-04	-1.398232e-04	1.222767e-03	9.449697e-04	9.352170e-04	-3.351379e-04	-2.382340e-04	7.006327e-04	-1.202393e-03	-1.069778e-03	-9.553488e-04	-8.496238e-04	3.423273e-04	3.887753e-04	4.176015e-04	5.365063e-05	1.291921e-04	-3.168769e-03	-3.036964e-03	1.883644e-03	1.969159e-03	4.037542e-03	2.501877e-03	3.434761e-03	-1.220106e-03	-2.154666e-03	-1.960571e-03	-1.758762e-03	-1.564115e-03	-1.390839e-03	-1.011111e-03	-7.587671e-04	-4.923319e-04	-2.177027e-04	6.730902e-05	3.597895e-04	6.511828e-04	9.126061e-04	2.592748e-03	2.756212e-03	2.912205e-03	3.019374e-03	3.129198e-03	4.000602e-03	3.955046e-03	9.172079e-04	9.077788e-04	8.843213e-04	5.469555e-04	5.819098e-04	3.879399e-03	3.720746e-03	3.433169e-03	2.992791e-03	3.563773e-03	3.685278e-03	3.805656e-03	3.910142e-03	3.977271e-03	4.073134e-03	2.027769e-03	2.092611e-03	-2.601691e-03	-2.484598e-03	7.653776e-04	8.786188e-04	9.179535e-04	1.942369e-04	2.489245e-04	-4.057066e-03	4.128073e-03	4.108789e-03	-5.282545e-03	-9.738087e-04	-3.597213e-03	-3.324069e-03	1.840694e-03	-1.981002e-03	-1.703543e-03	2.514720e-03	1.498613e-03	4.950136e-04	-1.561084e-03	-2.343758e-03	-2.885961e-03	8.408626e-04	2.078992e-03	-4.515733e-03	7.750388e-04	-1.468883e-03	3.750630e-03	1.177620e-03	-1.908333e-03	3.670097e-04	8.176009e-04	7.597362e-04	5.953399e-04	9.327785e-04	9.666877e-04	-1.361054e-03	-1.251221e-03	-6.086233e-03	-3.253240e-03	-3.392317e-03	-2.678588e-03	2.476115e-03	9.776448e-04	8.275702e-04	-7.389019e-04	-6.928601e-03	-7.006684e-03	-2.192213e-03	9.007311e-04	-2.779001e-03	-1.592113e-04	1.009818e-03	-1.168604e-03	-1.806676e-03	5.399192e-04	-2.257897e-03	-6.540308e-04	-5.691474e-04	-3.124612e-03	-1.964000e-03	8.743773e-04	1.053838e-03	8.401584e-04	-2.333584e-03	2.873865e-03	-8.336948e-04	-2.090653e-03	-2.012632e-03	1.397305e-03	-1.589692e-03	-2.584314e-03	1.187895e-03	2.276804e-03	7.461973e-04	-1.429667e-04	-6.995335e-04	7.732680e-04	7.711305e-04	7.845989e-04	8.038221e-04	1.155617e-03	4.131819e-04	8.325989e-04	8.511460e-04	3.316529e-04	8.070189e-04	7.956658e-04	8.353035e-04	-4.717462e-04	-3.643236e-04	-2.767734e-04	-1.129231e-03	2.399970e-04	2.887980e-04	-1.795973e-04	-8.407163e-05	8.001141e-04	-3.002543e-03	1.597306e-03	1.763001e-03	3.372045e-03	-2.125434e-03	-1.932468e-03	-1.208401e-03	-1.733646e-03	-1.543662e-03	-1.370810e-03	-1.031735e-03	-8.184093e-04	-5.770114e-04	-3.236356e-04	-6.161226e-05	2.103109e-04	4.855362e-04	2.551642e-03	2.587421e-03	2.697245e-03	2.864676e-03	3.048444e-03	3.225333e-03	3.592681e-03	3.482421e-03	8.232844e-04	7.822589e-04	4.597798e-04	4.957326e-04	3.353451e-03	3.147954e-03	2.822034e-03	2.385428e-03	1.834449e-03	3.489826e-03	3.590624e-03	3.682775e-03	3.743600e-03	3