# vtk DataFile Version 3.0
vtk output
ASCII
DATASET UNSTRUCTURED_GRID
POINTS 5233 float
9.997500e-01	-3.632909e-05	0.0	9.990000e-01	-1.452618e-04	0.0	9.977600e-01	-3.252008e-04	0.0	9.960200e-01	-5.774943e-04	0.0	9.937800e-01	-9.022942e-04	0.0	9.910500e-01	-1.298763e-03	0.0	9.878400e-01	-1.766726e-03	0.0	9.841300e-01	-2.311194e-03	0.0	9.799500e-01	-2.930640e-03	0.0	9.752800e-01	-3.631444e-03	0.0	9.701500e-01	-4.412625e-03	0.0	9.645400e-01	-5.280292e-03	0.0	9.584700e-01	-6.233365e-03	0.0	9.519400e-01	-7.272227e-03	0.0	9.449600e-01	-8.393908e-03	0.0	9.375400e-01	-9.593773e-03	0.0	9.296900e-01	-1.086609e-02	0.0	9.214000e-01	-1.220804e-02	0.0	9.127000e-01	-1.361074e-02	0.0	9.035800e-01	-1.507272e-02	0.0	8.940600e-01	-1.658877e-02	0.0	8.841500e-01	-1.815610e-02	0.0	8.738500e-01	-1.977361e-02	0.0	8.631800e-01	-2.143627e-02	0.0	8.521600e-01	-2.313752e-02	0.0	8.407700e-01	-2.487471e-02	0.0	8.290500e-01	-2.663345e-02	0.0	8.170100e-01	-2.840162e-02	0.0	8.046400e-01	-3.016792e-02	0.0	7.919700e-01	-3.191393e-02	0.0	7.790100e-01	-3.362378e-02	0.0	7.657800e-01	-3.528073e-02	0.0	7.522800e-01	-3.687177e-02	0.0	7.385200e-01	-3.838440e-02	0.0	7.245300e-01	-3.980643e-02	0.0	7.103200e-01	-4.113073e-02	0.0	6.958900e-01	-4.235375e-02	0.0	6.812700e-01	-4.347212e-02	0.0	6.664700e-01	-4.448693e-02	0.0	6.515000e-01	-4.540154e-02	0.0	6.363800e-01	-4.622067e-02	0.0	6.211300e-01	-4.695082e-02	0.0	6.057600e-01	-4.760016e-02	0.0	5.902800e-01	-4.817747e-02	0.0	5.747100e-01	-4.869148e-02	0.0	5.590600e-01	-4.915119e-02	0.0	5.433600e-01	-4.956464e-02	0.0	5.276100e-01	-4.993996e-02	0.0	5.118400e-01	-5.028359e-02	0.0	4.960500e-01	-5.060149e-02	0.0	4.802700e-01	-5.089775e-02	0.0	4.645100e-01	-5.117554e-02	0.0	4.487800e-01	-5.143670e-02	0.0	4.331100e-01	-5.168146e-02	0.0	4.175000e-01	-5.190932e-02	0.0	4.019700e-01	-5.211839e-02	0.0	3.865400e-01	-5.230586e-02	0.0	3.712300e-01	-5.246816e-02	0.0	3.560400e-01	-5.260130e-02	0.0	3.409900e-01	-5.270061e-02	0.0	3.261100e-01	-5.276113e-02	0.0	3.114000e-01	-5.277790e-02	0.0	2.968700e-01	-5.274582e-02	0.0	2.825500e-01	-5.265996e-02	0.0	2.684500e-01	-5.251559e-02	0.0	2.545700e-01	-5.230801e-02	0.0	2.409400e-01	-5.203324e-02	0.0	2.275700e-01	-5.168749e-02	0.0	2.144700e-01	-5.126729e-02	0.0	2.016600e-01	-5.076993e-02	0.0	1.891400e-01	-5.019238e-02	0.0	1.769300e-01	-4.953284e-02	0.0	1.650400e-01	-4.878952e-02	0.0	1.534900e-01	-4.796177e-02	0.0	1.422900e-01	-4.704883e-02	0.0	1.314400e-01	-4.604934e-02	0.0	1.209500e-01	-4.496296e-02	0.0	1.108500e-01	-4.379208e-02	0.0	1.011300e-01	-4.253503e-02	0.0	9.181000e-02	-4.119389e-02	0.0	8.290000e-02	-3.976997e-02	0.0	7.440000e-02	-3.826304e-02	0.0	6.633000e-02	-3.667657e-02	0.0	5.869000e-02	-3.501058e-02	0.0	5.149000e-02	-3.326708e-02	0.0	4.474000e-02	-3.144844e-02	0.0	3.844000e-02	-2.955433e-02	0.0	3.260000e-02	-2.758711e-02	0.0	2.723000e-02	-2.554977e-02	0.0	2.232000e-02	-2.343708e-02	0.0	1.790000e-02	-2.126113e-02	0.0	1.395000e-02	-1.901092e-02	0.0	1.049000e-02	-1.669561e-02	0.0	7.520000e-03	-1.431461e-02	0.0	5.040000e-03	-1.186637e-02	0.0	3.050000e-03	-9.347302e-03	0.0	1.560000e-03	-6.769269e-03	0.0	5.600000e-04	-4.108233e-03	0.0	6.000000e-05	-1.363608e-03	0.0	0.000000e+00	0.000000e+00	0.0	6.000000e-05	1.350236e-03	0.0	5.600000e-04	4.050826e-03	0.0	1.560000e-03	6.663226e-03	0.0	3.050000e-03	9.195473e-03	0.0	5.040000e-03	1.167583e-02	0.0	7.520000e-03	1.409653e-02	0.0	1.049000e-02	1.646478e-02	0.0	1.395000e-02	1.878581e-02	0.0	1.790000e-02	2.106403e-02	0.0	2.232000e-02	2.329392e-02	0.0	2.723000e-02	2.549065e-02	0.0	3.260000e-02	2.764558e-02	0.0	3.844000e-02	2.976800e-02	0.0	4.474000e-02	3.185849e-02	0.0	5.149000e-02	3.391797e-02	0.0	5.869000e-02	3.595015e-02	0.0	6.633000e-02	3.795531e-02	0.0	7.440000e-02	3.993367e-02	0.0	8.290000e-02	4.188739e-02	0.0	9.181000e-02	4.381361e-02	0.0	1.011300e-01	4.571359e-02	0.0	1.108500e-01	4.758588e-02	0.0	1.209500e-01	4.942683e-02	0.0	1.314400e-01	5.123782e-02	0.0	1.422900e-01	5.301272e-02	0.0	1.534900e-01	5.474871e-02	0.0	1.650400e-01	5.644398e-02	0.0	1.769300e-01	5.809472e-02	0.0	1.891400e-01	5.969553e-02	0.0	2.016600e-01	6.124223e-02	0.0	2.144700e-01	6.272926e-02	0.0	2.275700e-01	6.415328e-02	0.0	2.409400e-01	6.550849e-02	0.0	2.545700e-01	6.679020e-02	0.0	2.684500e-01	6.799357e-02	0.0	2.825500e-01	6.911218e-02	0.0	2.968700e-01	7.014214e-02	0.0	3.114000e-01	7.107860e-02	0.0	3.261100e-01	7.191555e-02	0.0	3.409900e-01	7.264840e-02	0.0	3.560400e-01	7.327286e-02	0.0	3.712300e-01	7.378330e-02	0.0	3.865400e-01	7.417483e-02	0.0	4.019700e-01	7.444303e-02	0.0	4.175000e-01	7.458295e-02	0.0	4.331100e-01	7.458992e-02	0.0	4.487800e-01	7.445955e-02	0.0	4.645100e-01	7.418745e-02	0.0	4.802700e-01	7.376991e-02	0.0	4.960500e-01	7.320341e-02	0.0	5.118400e-01	7.248482e-02	0.0	5.276100e-01	7.161270e-02	0.0	5.433600e-01	7.058503e-02	0.0	5.590600e-01	6.940265e-02	0.0	5.747100e-01	6.806549e-02	0.0	5.902800e-01	6.657731e-02	0.0	6.057600e-01	6.494175e-02	0.0	6.211300e-01	6.316504e-02	0.0	6.363800e-01	6.125402e-02	0.0	6.515000e-01	5.921698e-02	0.0	6.664700e-01	5.706516e-02	0.0	6.812700e-01	5.481151e-02	0.0	6.958900e-01	5.246892e-02	0.0	7.103200e-01	5.005129e-02	0.0	7.245300e-01	4.757686e-02	0.0	7.385200e-01	4.505941e-02	0.0	7.522800e-01	4.251466e-02	0.0	7.657800e-01	3.996213e-02	0.0	7.790100e-01	3.741749e-02	0.0	7.919700e-01	3.489399e-02	0.0	8.046400e-01	3.240819e-02	0.0	8.170100e-01	2.997405e-02	0.0	8.290500e-01	2.760884e-02	0.0	8.407700e-01	2.532127e-02	0.0	8.521600e-01	2.312328e-02	0.0	8.631800e-01	2.103157e-02	0.0	8.738500e-01	1.905016e-02	0.0	8.841500e-01	1.718895e-02	0.0	8.940600e-01	1.545535e-02	0.0	9.035800e-01	1.385019e-02	0.0	9.127000e-01	1.237271e-02	0.0	9.214000e-01	1.102010e-02	0.0	9.296900e-01	9.781662e-03	0.0	9.375400e-01	8.650401e-03	0.0	9.449600e-01	7.612208e-03	0.0	9.519400e-01	6.656126e-03	0.0	9.584700e-01	5.772587e-03	0.0	9.645400e-01	4.954359e-03	0.0	9.701500e-01	4.195689e-03	0.0	9.752800e-01	3.496291e-03	0.0	9.799500e-01	2.852720e-03	0.0	9.841300e-01	2.270023e-03	0.0	9.878400e-01	1.747228e-03	0.0	9.910500e-01	1.290667e-03	0.0	9.937800e-01	8.994899e-04	0.0	9.960200e-01	5.767420e-04	0.0	9.977600e-01	3.250644e-04	0.0	9.990000e-01	1.452495e-04	0.0	9.997500e-01	3.632890e-05	0.0	1.000000e+00	0.000000e+00	0.0	1.984229e+01	2.506660e+00	0.0	1.937166e+01	4.973800e+00	0.0	1.859553e+01	7.362490e+00	0.0	1.752613e+01	9.635070e+00	0.0	1.618034e+01	1.175571e+01	0.0	1.457937e+01	1.369094e+01	0.0	1.274848e+01	1.541027e+01	0.0	1.071654e+01	1.688656e+01	0.0	8.515590e+00	1.809654e+01	0.0	6.180340e+00	1.902113e+01	0.0	3.747630e+00	1.964575e+01	0.0	1.255810e+00	1.996053e+01	0.0	-1.255810e+00	1.996053e+01	0.0	-3.747630e+00	1.964574e+01	0.0	-6.180340e+00	1.902113e+01	0.0	-8.515590e+00	1.809654e+01	0.0	-1.071654e+01	1.688656e+01	0.0	-1.274848e+01	1.541026e+01	0.0	-1.457937e+01	1.369094e+01	0.0	-1.618034e+01	1.175570e+01	0.0	-1.752613e+01	9.635070e+00	0.0	-1.859553e+01	7.362490e+00	0.0	-1.937166e+01	4.973800e+00	0.0	-1.984229e+01	2.506660e+00	0.0	-2.000000e+01	0.000000e+00	0.0	-1.984229e+01	-2.506670e+00	0.0	-1.937166e+01	-4.973800e+00	0.0	-1.859553e+01	-7.362490e+00	0.0	-1.752613e+01	-9.635080e+00	0.0	-1.618034e+01	-1.175571e+01	0.0	-1.457937e+01	-1.369094e+01	0.0	-1.274848e+01	-1.541027e+01	0.0	-1.071653e+01	-1.688656e+01	0.0	-8.515580e+00	-1.809654e+01	0.0	-6.180340e+00	-1.902113e+01	0.0	-3.747620e+00	-1.964575e+01	0.0	-1.255810e+00	-1.996053e+01	0.0	1.255810e+00	-1.996053e+01	0.0	3.747630e+00	-1.964574e+01	0.0	6.180340e+00	-1.902113e+01	0.0	8.515590e+00	-1.809654e+01	0.0	1.071654e+01	-1.688656e+01	0.0	1.274848e+01	-1.541026e+01	0.0	1.457937e+01	-1.369094e+01	0.0	1.618034e+01	-1.175570e+01	0.0	1.752614e+01	-9.635070e+00	0.0	1.859553e+01	-7.362490e+00	0.0	1.937166e+01	-4.973790e+00	0.0	1.984229e+01	-2.506660e+00	0.0	2.000000e+01	0.000000e+00	0.0	6.093892e-02	-4.285144e-02	0.0	6.600410e-01	-5.844939e-02	0.0	4.255297e-01	8.863687e-02	0.0	6.904536e-01	6.677179e-02	0.0	3.791252e-01	-6.656260e-02	0.0	9.994589e-01	-7.258723e-04	0.0	9.985402e-01	-1.320872e-03	0.0	7.738251e-01	-4.634860e-02	0.0	6.897588e-01	-5.606349e-02	0.0	-1.367138e-03	6.233161e-03	0.0	7.467650e-01	-4.997311e-02	0.0	5.838090e-01	8.122916e-02	0.0	9.927651e-01	-3.598793e-03	0.0	9.898616e-01	-4.480982e-03	0.0	5.994275e-01	7.958836e-02	0.0	7.187102e-01	-5.322760e-02	0.0	-1.548094e-03	7.305687e-04	0.0	9.864673e-01	-5.441292e-03	0.0	9.825916e-01	-6.470515e-03	0.0	-1.358171e-03	-6.336027e-03	0.0	6.449375e-01	-5.947833e-02	0.0	8.244939e-01	-3.842106e-02	0.0	7.997632e-01	-4.246746e-02	0.0	3.482204e-01	8.660152e-02	0.0	8.478910e-01	-3.434813e-02	0.0	2.468390e-01	7.862192e-02	0.0	8.698983e-01	-3.032503e-02	0.0	1.001408e-02	2.079824e-02	0.0	8.904116e-01	-2.642047e-02	0.0	7.722818e-02	-4.682321e-02	0.0	9.093595e-01	-2.267674e-02	0.0	-1.865007e-03	-3.138557e-03	0.0	9.422484e-01	-1.580904e-02	0.0	9.266631e-01	-1.912583e-02	0.0	1.806769e-02	-2.637803e-02	0.0	4.256782e-01	-6.623083e-02	0.0	8.590773e-01	-3.232303e-02	0.0	9.560748e-01	-1.276843e-02	0.0	9.782290e-01	-7.589010e-03	0.0	9.680882e-01	-1.002215e-02	0.0	1.584746e-01	-5.900398e-02	0.0	9.000881e-01	-2.452666e-02	0.0	7.604299e-01	-4.820093e-02	0.0	9.971132e-01	-2.058079e-03	0.0	5.988429e-01	-6.197001e-02	0.0	4.413590e-01	-6.604490e-02	0.0	5.361230e-01	-6.418097e-02	0.0	4.728882e-01	-6.557080e-02	0.0	5.045102e-01	-6.495629e-02	0.0	4.886866e-01	-6.528085e-02	0.0	1.251652e-01	-5.514410e-02	0.0	2.799454e-02	-3.148915e-02	0.0	3.945492e-01	-6.649285e-02	0.0	4.640172e-02	-3.855324e-02	0.0	4.100682e-01	-6.638196e-02	0.0	3.187978e-01	-6.636792e-02	0.0	3.486567e-01	-6.657206e-02	0.0	3.367005e-02	-3.391128e-02	0.0	2.896281e-01	-6.592628e-02	0.0	9.346743e-01	-1.743395e-02	0.0	1.470184e-01	-5.780948e-02	0.0	1.948400e-01	-6.200962e-02	0.0	8.600599e-02	-4.867547e-02	0.0	1.048018e-01	-5.210645e-02	0.0	5.676108e-01	-6.321237e-02	0.0	1.702734e-01	-6.010386e-02	0.0	6.143295e-01	-6.122907e-02	0.0	8.803501e-01	-2.835590e-02	0.0	2.280418e-02	-2.897635e-02	0.0	9.951875e-01	-2.803889e-03	0.0	6.796488e-03	-1.820110e-02	0.0	1.798544e-02	2.626178e-02	0.0	9.182203e-01	-2.087471e-02	0.0	9.49388
[...]
POINT_DATA 5233

SCALARS Conservative_1 float 1
LOOKUP_TABLE default
4.275819e-01	2.164996e-01	1.768875e-01	1.475738e-01	1.284370e-01	1.138058e-01	1.021616e-01	9.271410e-02	8.496653e-02	7.854136e-02	7.316202e-02	6.863018e-02	6.476649e-02	6.146281e-02	5.861091e-02	5.613511e-02	5.397231e-02	5.195183e-02	5.005276e-02	4.832119e-02	4.692264e-02	4.574980e-02	4.478950e-02	4.401150e-02	4.333384e-02	4.282081e-02	4.235559e-02	4.201953e-02	4.168633e-02	4.139920e-02	4.112709e-02	4.077365e-02	4.045440e-02	3.997457e-02	3.949805e-02	3.886791e-02	3.823423e-02	3.745919e-02	3.670153e-02	3.582843e-02	3.499879e-02	3.408620e-02	3.324296e-02	3.234544e-02	3.153349e-02	3.069785e-02	2.994580e-02	2.920269e-02	2.852585e-02	2.788092e-02	2.729154e-02	2.673433e-02	2.620705e-02	2.573850e-02	2.527490e-02	2.487614e-02	2.447291e-02	2.412074e-02	2.375663e-02	2.343377e-02	2.309155e-02	2.278337e-02	2.244481e-02	2.213305e-02	2.178416e-02	2.145305e-02	2.107943e-02	2.071511e-02	2.030836e-02	1.989196e-02	1.944490e-02	1.896503e-02	1.846645e-02	1.792097e-02	1.734949e-02	1.674141e-02	1.608341e-02	1.539229e-02	1.464841e-02	1.386121e-02	1.301673e-02	1.211979e-02	1.116224e-02	1.014130e-02	9.050493e-03	7.889213e-03	6.648587e-03	5.326661e-03	3.928542e-03	2.440992e-03	9.109023e-04	-5.004919e-04	-2.294025e-03	-4.688427e-03	-2.149801e-03	6.119369e-03	8.002478e-03	2.550055e-03	-4.554500e-03	-1.112813e-02	-1.723066e-02	-3.052747e-02	-5.064081e-02	-6.705997e-02	-7.999120e-02	-1.003382e-01	-1.274176e-01	-1.482196e-01	-1.581121e-01	-1.618808e-01	-1.637634e-01	-1.647033e-01	-1.645075e-01	-1.628030e-01	-1.598686e-01	-1.560924e-01	-1.519611e-01	-1.478729e-01	-1.442121e-01	-1.411159e-01	-1.385947e-01	-1.367499e-01	-1.356253e-01	-1.351532e-01	-1.349720e-01	-1.347877e-01	-1.345189e-01	-1.342261e-01	-1.339996e-01	-1.338832e-01	-1.336599e-01	-1.333253e-01	-1.327073e-01	-1.318647e-01	-1.309724e-01	-1.301170e-01	-1.294435e-01	-1.284263e-01	-1.265369e-01	-1.231492e-01	-1.181749e-01	-1.105046e-01	-9.896622e-02	-8.593089e-02	-7.821138e-02	-7.706234e-02	-7.922808e-02	-8.155974e-02	-8.301538e-02	-8.386324e-02	-8.421813e-02	-8.423824e-02	-8.373470e-02	-8.288535e-02	-8.179078e-02	-8.040337e-02	-7.898940e-02	-7.734932e-02	-7.566088e-02	-7.392563e-02	-7.210595e-02	-7.037081e-02	-6.856376e-02	-6.690530e-02	-6.520447e-02	-6.368780e-02	-6.216250e-02	-6.084418e-02	-5.953822e-02	-5.845173e-02	-5.739373e-02	-5.657052e-02	-5.576731e-02	-5.522058e-02	-5.478115e-02	-5.453339e-02	-5.451294e-02	-5.470451e-02	-5.523539e-02	-5.602944e-02	-5.734525e-02	-5.896738e-02	-6.086156e-02	-6.295357e-02	-6.544920e-02	-6.827876e-02	-7.153493e-02	-7.517455e-02	-7.929507e-02	-8.395110e-02	-8.930003e-02	-9.549910e-02	-1.028108e-01	-1.115217e-01	-1.220629e-01	-1.349916e-01	-1.546507e-01	-1.722011e-01	-3.287469e-01	3.763306e-02	-1.103109e-04	-1.209219e-04	-1.308990e-04	-1.394158e-04	-1.498519e-04	-1.577753e-04	-1.665748e-04	-1.695645e-04	-1.637436e-04	-1.621869e-04	-1.680536e-04	-1.698883e-04	-1.727312e-04	-1.649652e-04	-1.465302e-04	-1.379126e-04	-1.195279e-04	-1.062460e-04	-9.160009e-05	-7.251438e-05	-4.602305e-05	-2.996119e-05	2.902504e-05	1.683975e-04	1.211987e-04	1.448352e-04	2.084888e-04	2.167832e-04	1.331475e-04	1.652216e-04	1.928176e-04	2.072747e-04	2.188666e-04	2.209697e-04	2.203628e-04	2.094092e-04	1.757057e-04	1.458348e-04	8.892083e-05	6.570905e-05	5.437826e-05	3.393281e-05	1.332906e-05	-8.019682e-06	-2.789139e-05	-4.542437e-05	-6.051031e-05	-7.499233e-05	-8.770979e-05	-9.964017e-05	9.762437e-03	3.209453e-02	-6.685217e-02	-6.023824e-02	2.147880e-02	3.331251e-01	2.386721e-01	3.722035e-02	3.359835e-02	-3.118262e-02	3.616032e-02	-6.854652e-02	1.265546e-01	1.107194e-01	-6.747811e-02	3.496781e-02	-1.310875e-02	9.874933e-02	8.939987e-02	4.051537e-03	3.133159e-02	3.933324e-02	3.822816e-02	-9.478730e-02	4.070052e-02	-1.092462e-01	4.249732e-02	-1.088113e-01	4.496078e-02	1.145614e-02	4.840739e-02	-1.714701e-03	5.674732e-02	5.229044e-02	1.630818e-03	2.254239e-02	4.152381e-02	6.259896e-02	8.187230e-02	7.058169e-02	1.625909e-02	4.656015e-02	3.673007e-02	1.812511e-01	2.896929e-02	2.295970e-02	2.614375e-02	2.387299e-02	2.493853e-02	2.439352e-02	1.476490e-02	4.315493e-03	2.180532e-02	7.804485e-03	2.217257e-02	2.027831e-02	2.085623e-02	5.555038e-03	1.971302e-02	5.439951e-02	1.580042e-02	1.748886e-02	1.221370e-02	1.357880e-02	2.749253e-02	1.670015e-02	2.975994e-02	4.362089e-02	3.010594e-03	1.485561e-01	-2.920541e-03	-1.330041e-01	5.034246e-02	5.945293e-02	7.570206e-02	-4.504195e-02	3.995622e-02	1.882644e-02	2.681120e-02	3.560278e-02	3.773152e-02	1.419447e-02	1.819133e-02	2.823334e-02	3.287873e-02	8.816266e-03	-3.582905e-03	2.949202e-04	2.115169e-02	1.710501e-02	4.501576e-01	1.852335e-02	1.292295e-02	1.998562e-02	1.913708e-02	2.339656e-02	3.432332e-02	-1.950408e-02	6.307513e-03	-7.083841e-02	-8.017749e-03	-1.403281e-01	-1.380877e-01	-1.421206e-01	-1.168281e-01	-6.688840e-02	-1.634698e-01	-7.110599e-02	-7.001884e-02	-8.099526e-02	-7.258759e-02	-5.342728e-02	-7.067642e-02	-6.786835e-02	-7.794711e-02	-5.924069e-02	-5.594647e-02	-1.271552e-01	-8.621128e-02	-6.912953e-02	-6.346177e-02	-1.208997e-01	-1.347020e-01	-1.053724e-01	-1.079745e-01	-1.133786e-01	-1.022149e-01	-6.902837e-02	-6.975563e-02	-1.144485e-01	-1.156656e-01	-6.517006e-02	-1.123504e-01	-1.112036e-01	-6.269412e-02	-6.944371e-02	-5.592185e-02	-5.794752e-02	-5.296244e-02	-5.424643e-02	-5.182392e-02	-5.215305e-02	-5.454125e-02	-5.215334e-02	-6.611546e-02	-5.753941e-02	-7.650154e-02	-5.190344e-02	-5.265745e-02	-5.246603e-02	-5.189169e-02	-5.501139e-02	-5.352741e-02	-5.903865e-02	-5.686889e-02	-6.392375e-02	-6.142918e-02	-7.025313e-02	-6.637002e-02	-1.118617e-01	-1.103369e-01	-1.139381e-01	-1.128496e-01	-1.407190e-01	-1.149549e-01	-1.249604e-01	-1.419550e-01	1.785458e-02	-6.512198e-02	6.626339e-02	3.874560e-02	2.055487e-02	2.552742e-02	-5.482672e-02	-1.374250e-01	-8.516500e-02	-1.237633e-01	-1.309290e-01	-1.066816e-01	-1.185669e-01	-9.240760e-02	-9.989886e-02	-1.040134e-01	-1.093329e-01	-1.216320e-01	-9.944295e-02	-8.738119e-02	-6.122301e-02	-3.838794e-01	-2.073119e-01	-2.768305e-01	3.052567e-02	6.717522e-03	-1.385446e-01	-7.107445e-02	1.395102e-03	-9.663694e-04	1.063878e-02	1.530178e-02	1.941923e-02	-1.107196e-01	-2.890916e-02	-1.973007e-02	1.702744e-02	2.993274e-02	4.726434e-02	-1.257630e-03	-5.708627e-02	2.925285e-02	3.397975e-02	1.049573e-01	1.778203e-02	3.869193e-02	3.687162e-02	1.129493e-02	3.829414e-03	1.575363e-02	1.103200e-03	6.302226e-02	1.415047e-02	3.067838e-02	2.780241e-02	2.022517e-02	1.068196e-02	1.886799e-02	4.368327e-02	3.464337e-02	-7.346238e-02	-1.115953e-01	-5.275778e-02	-4.836003e-02	-9.912831e-02	-5.197824e-02	-9.329752e-02	-4.978591e-02	-1.038321e-01	-7.083547e-02	-5.882744e-02	-6.534066e-02	-5.061848e-02	-1.154504e-01	-6.852064e-02	-8.745742e-02	-8.762196e-02	-7.594201e-02	-8.884182e-02	-1.014093e-01	2.849044e-02	1.545845e-02	-9.176113e-02	-9.479581e-02	-1.193227e-01	-7.645372e-02	-1.307453e-01	-5.160628e-02	1.449425e-02	-1.239792e-01	-1.766091e-01	-1.522572e-01	-5.556537e-02	-3.828841e-02	-2.883647e-03	-5.733123e-03	-9.960595e-03	2.332393e-03	1.492674e-01	9.284022e-03	1.941196e-01	1.379063e-01	-5.634027e-02	2.309554e-02	9.384358e-02	4.091978e-02	-5.651086e-02	1.191145e-01	-4.983972e-04	1.984172e-02	-5.427324e-02	3.770749e-02	-8.345601e-02	3.973414e-02	4.222657e-02	1.001026e-02	4.536646e-02	4.933944e-02	5.645447e-02	4.651923e-03	5.948256e-02	6.715830e-02	8.509407e-02	1.332982e-02	3.263781e-02	3.334260e-02	1.637937e-01	2.062053e-02	2.104277e-02	2.152200e-02	3.521148e-03	1.916038e-02	1.951159e-02	1.802100e-02	6.713092e-03	5.147536e-02	5.380659e-02	1.375372e-02	1.186831e-02	2.371558e-02	2.563509e-02	7.205829e-02	7.792045e-02	3.132099e-02	3.202998e-02	1.238824e-02	1.288927e-02	2.430662e-02	2.499403e-02	7.635666e-03	8.494709e-03	2.676521e-05	1.830104e-02	1.856354e-02	1.484650e-02	1.516051e-02	1.601243e-02	1.628662e-02	1.728553e-02	1.751681e-02	1.653145e-02	-1.358503e-02	-1.373736e-03	-1.206089e-01	-9.469960e-02	-5.863751e-02	-5.868824e-02	-5.848617e-02	-5.817184e-02	-8.144326e-02	-7.220565e-02	-5.615859e-02	-5.791301e-02	-5.749610e-02	-5.331706e-02	-5.439408e-02	-6.253550e-02	-1.141235e-01	-1.170408e-01	-8.635499e-02	-8.495209e-02	-9.399719e-02	-9.587991e-02	-9.730843e-02	-4.819246e-02	-4.953277e-02	-5.011211e-02	-4.846821e-02	-4.818904e-02	-5.287172e-02	-4.918242e-02	-4.869025e-02	-4.804815e-02	-4.812549e-02	-4.870994e-02	-4.913506e-02	-5.064575e-02	-5.133956e-02	-5.346457e-02	-5.427379e-02	-5.777152e-02	-5.829217e-02	-5.502503e-02	-5.575858e-02	-8.993581e-02	-9.084498e-02	-9.174502e-02	-9.253685e-02	-1.041533e-01	-1.205663e-01	-1.191197e-01	3.535748e-02	3.605760e-02	2.201182e-02	2.255831e-02	-4.514859e-02	-1.162628e-01	-1.040927e-01	-1.072406e-01	-7.932071e-02	-8.161524e-02	-5.671500e-02	-6.372607e-02	-6.014743e-02	-5.800306e-02	2.636966e-02	2.704275e-02	5.719045e-03	3.308306e-03	1.679786e-02	1.307461e-04	1.648874e-02	1.474471e-02	3.123720e-02	1.991331e-02	4.567989e-02	-1.002846e-01	-9.217236e-02	-6.671154e-02	-3.879606e-02	-1.091217e-01	-2.258751e-01	-2.053969e-01	1.492525e-01	7.048101e-03	2.968856e-03	-1.201829e-02	1.027208e-02	4.782840e-02	1.025266e-01	-4.794880e-02	2.524062e-01	-1.421114e-03	2.695397e-02	7.712946e-04	2.764522e-02	1.920350e-03	3.782483e-02	-4.171236e-05	1.544697e-02	3.666702e-02	2.621714e-02	1.133879e-01	8.943799e-04	-7.960857e-02	-4.879226e-02	-6.066480e-02	-4.554335e-02	-1.211972e-01	-4.875523e-02	-6.486310e-02	-4.966414e-02	-7.476881e-02	-9.425796e-02	-2.249001e-01	2.597207e-03	-2.565266e-02	-8.535232e-02	-1.855567e-02	6.237991e-02	9.808665e-03	-8.479516e-03	1.243930e-02	1.778611e-02	3.984093e-03	-6.229992e-02	-4.471854e-02	-4.377720e-02	-4.515526e-02	-8.539689e-02	-6.350688e-02	-4.814703e-02	-4.716448e-02	-5.542776e-02	-6.292243e-02	-6.843365e-02	-8.296043e-02	2.480682e-02	2.552599e-02	1.342799e-02	-7.547320e-02	-7.571118e-02	-7.462786e-02	-1.388821e-01	-4.859354e-02	-3.238397e-02	-1.872480e-03	-4.493759e-03	4.940991e-03	2.252440e-01	2.531254e-01	6.666260e-02	9.270485e-02	-4.747511e-02	1.743673e-02	-4.642032e-02	3.463799e-02	3.558000e-02	3.908072e-02	4.046897e-02	8.710887e-03	9.284639e-03	4.197137e-02	4.374923e-02	5.546613e-02	5.867293e-02	8.450822e-02	2.973669e-02	3.056161e-02	1.281744e-01	1.819304e-02	1.854925e-02	1.675888e-02	1.710596e-02	5.818211e-03	5.015101e-02	5.263375e-02	1.181757e-02	1.213304e-02	2.045686e-02	2.098374e-02	7.164427e-02	7.756530e-02	2.840625e-02	2.911729e-02	1.070584e-02	1.111198e-02	1.149536e-02	2.158199e-02	2.216840e-02	6.639139e-03	7.395625e-03	8.097331e-03	1.566413e-02	1.594690e-02	1.618367e-02	1.269663e-02	1.295466e-02	1.321494e-02	1.367932e-02	1.387078e-02	1.498877e-02	1.518978e-02	1.411510e-02	-9.896919e-02	-4.881267e-02	-4.879064e-02	-7.040436e-02	-4.878737e-02	-4.873647e-02	-4.831276e-02	-4.304656e-02	-5.221215e-02	-9.644910e-02	-9.802290e-02	-6.625077e-02	-6.727231e-02	-7.704509e-02	-7.872117e-02	-8.063628e-02	-4.404497e-02	-5.066005e-02	-4.924189e-02	-4.639592e-02	-4.566975e-02	-4.513880e-02	-4.422504e-02	-4.411661e-02	-4.394127e-02	-4.379682e-02	-4.379351e-02	-4.392003e-02	-4.428569e-02	-4.451537e-02	-4.483969e-02	-4.591877e-02	-4.838884e-02	-4.858726e-02	-4.634712e-02	-4.672493e-02	-4.719387e-02	-6.958067e-02	-7.074595e-02	-7.193008e-02	-7.301070e-02	-7.395675e-02	-9.912648e-02	-9.829996e-02	3.206929e-02	3.288965e-02	3.369907e-02	1.895408e-02	1.946465e-02	-9.613003e-02	-9.204826e-02	-8.556106e-02	-8.848028e-02	-9.148973e-02	-5.983569e-02	-3.949282e-02	-3.925216e-02	-4.350793e-02	-5.821319e-02	-5.598130e-02	-5.404376e-02	2.281820e-02	2.345049e-02	2.413856e-02	1.431447e-02	1.455458e-02	-3.679769e-04	9.227711e-03	-1.061799e-01	-7.567083e-02	1.808713e-02	-1.256368e-02	1.567610e-01	4.400431e-02	4.622478e-02	5.183901e-03	-9.220180e-02	-4.177307e-02	8.359828e-04	-6.155317e-02	5.004721e-05	-6.106543e-02	-9.805283e-02	-2.352478e-02	-4.069011e-02	-2.882591e-02	-8.824912e-02	1.002735e-01	2.945161e-02	1.084645e-02	3.578692e-03	1.450109e-02	8.902498e-03	1.543167e-02	1.278041e-02	-8.054564e-02	-4.159225e-02	-5.835577e-02	-5.597623e-02	-4.013890e-02	-5.948376e-02	-5.012482e-02	8.721731e-02	-7.770954e-02	3.498900e-02	-1.444315e-01	-8.606506e-02	1.114852e-01	6.459116e-02	2.719513e-03	2.421215e-02	-8.510639e-04	2.470319e-02	2.569602e-02	1.819670e-03	9.468294e-02	1.013156e-03	-4.162889e-02	-4.225744e-02	-3.923109e-02	-1.802831e-02	-5.210191e-02	-4.009448e-02	-4.485389e-02	-3.347502e-02	-4.446742e-02	-4.784139e-02	2.282617e-02	2.328766e-02	-7.129444e-02	-4.241276e-02	-3.455851e-02	-2.277694e-04	-3.320680e-03	4.428378e-03	6.058645e-02	8.040897e-02	-4.117309e-02	3.287831e-02	3.382486e-02	3.614592e-02	3.744630e-02	8.095912e-03	8.518318e-03	3.878545e-02	4.034521e-02	4.215844e-02	5.388548e-02	5.702919e-02	2.785559e-02	2.843869e-02	1.019180e-01	1.584957e-02	1.626995e-02	1.473384e-02	1.512534e-02	4.858481e-02	5.106253e-02	1.037542e-02	1.054524e-02	1.839175e-02	6.918060e-02	7.446512e-02	2.627012e-02	2.691806e-02	9.556373e-03	9.812229e-03	1.015858e-02	1.911708e-02	1.947180e-02	5.874552e-03	6.517368e-03	7.123019e-03	7.647456e-03	1.341595e-02	1.367724e-02	1.391207e-02	1.420511e-02	1.098587e-02	1.123290e-02	1.139298e-02	1.161511e-02	1.177193e-02	1.320604e-02	1.296858e-02	1.198707e-02	-4.192337e-02	-6.746430e-02	-6.407959e-02	-4.189613e-02	-4.179341e-02	-4.162649e-02	-4.081113e-02	-3.868712e-02	-7.841507e-02	-7.877945e-02	-5.109711e-02	-5.210293e-02	-6.078435e-02	-6.262645e-02	-6.451771e-02	-6.681060e-02	-4.834566e-02	-4.699945e-02	-4.580301e-02	-4.395127e-02	-4.320741e-02	-4.248477e-02	-4.203378e-02	-4.095434e-02	-4.081082e-02	-4.069060e-02	-4.030195e-02	-3.986962e-02	-4.016163e-02	-3.978948e-02	-4.019645e-02	-3.987189e-02	-4.038171e-02	-4.169382e-02	-4.222765e-02	-4.042049e-02	-4.109072e-02	-4.083399e-02	-4.150682e-02	-5.286729e-02	-5.398508e-02	-5.505438e-02	-5.639111e-02	-5.745978e-02	-5.843033e-02	-7.902369e-02	-7.899888e-02	3.014130e-02	3.094367e-02	3.190723e-02	1.653582e-02	1.717203e-02	1.743554e-02	-7.789161e-02	-7.475360e-02	-6.925689e-02	-6.936699e-02	-7.211484e-02	-7.460858e-02	-7.648155e-02	-3.492421e-02	-3.009878e-02	-2.749461e-02	-2.878169e-02	-4.996744e-02	-5.375424e-02	-5.185954e-02	2.025946e-02	2.065874e-02	2.149974e-02	2.193563e-02	1.216246e-02	1.238520e-02	1.255676e-02	2.682209e-03	-9.301318e-02	5.794709e-02	-1.550571e-01	1.968437e-03	2.352998e-02	8.298041e-03	1.220157e-03	-6.714744e-02	2.339683e-04	4.778640e-03	9.452376e-03	-4.861079e-02	-4.312223e-02	-2.592478e-02	-1.291483e-02	-8.385647e-03	-6.966885e-03	-8.588298e-03	1.374726e-05	9.633767e-02	-2.204985e-02	6.148081e-02	7.956364e-02	4.472414e-02	2.747550e-02	1.285932e-02	-8.263808e-02	-4.679082e-02	-5.158444e-02	-3.727554e-02	-3.719949e-02	-3.652224e-02	-3.719104e-02	-3.683786e-02	1.617912e-02	-1.933509e-02	-7.871294e-02	8.047257e-03	-1.654429e-01	-7.065432e-02	-6.282265e-03	1.706769e-01	1.824213e-01	4.291601e-02	5.334496e-03	-1.279731e-03	-4.975457e-02	4.760977e-04	-5.584155e-02	-2.169346e-02	-3.238193e-02	3.429501e-02	3.413777e-03	1.153801e-02	1.119084e-02	-7.434714e-02	-3.663238e-02	-5.366058e-02	7.420700e-02	2.203860e-02	-1.740657e-02	-2.869184e-02	-3.253271e-02	-3.799113e-02	2.067591e-02	-3.644454e-02	-3.066363e-02	-3.291035e-03	4.111032e-03	3.157750e-02	3.275010e-02	3.373213e-02	3.510301e-02	7.770152e-03	7.488508e-03	3.619906e-02	3.772901e-02	3.903241e-02	4.073034e-02	5.185523e-02	5.475900e-02	2.580934e-02	8.427449e-02	1.399792e-02	1.426483e-02	1.330155e-02	1.346712e-02	4.687590e-02	4.922256e-02	9.068191e-03	9.377761e-03	6.539766e-02	6.966729e-02	2.447140e-02	8.453298e-03	8.810434e-03	9.018155e-03	1.714118e-02	5.841247e-03	6.342523e-03	6.772298e-03	7.174847e-03	1.160185e-02	1.196997e-02	1.205261e-02	1.247120e-02	1.265026e-02	9.738761e-03	9.776722e-03	1.006965e-02	1.010026e-02	1.039911e-02	-6.391707e-02	-6.096446e-02	-5.829702e-02	-3.736893e-02	-3.670968e-02	-3.701166e-02	-3.620984e-02	-3.582132e-02	-6.149338e-02	-6.114756e-02	-3.900385e-02	-4.132784e-02	-5.119891e-02	-5.227984e-02	-5.430472e-02	-4.517434e-02	-4.420520e-02	-4.304433e-02	-4.235950e-02	-4.133261e-02	-4.075251e-02	-3.993044e-02	-3.922334e-02	-3.826877e-02	-3.789411e-02	-3.678878e-02	-3.655904e-02	-3.648196e-02	-3.667738e-02	-3.682380e-02	-4.108310e-02	-4.265929e-02	-4.257401e-02	-4.464642e-02	-4.489987e-02	-4.589936e-02	-4.720840e-02	-6.136031e-02	-6.202653e-02	2.863600e-02	2.974564e-02	3.057829e-02	1.459298e-02	1.530313e-02	-6.198305e-02	-5.981733e-02	-5.546895e-02	-5.660717e-02	-5.891395e-02	-6.076845e-02	-6.162526e-02	-6.163327e-02	-3.337094e-02	-2.974828e-02	-2.493294e-02	-1.985260e-02	-4.974770e-02	-4.820509e-02	1.822575e-02	1.940615e-02	1.044643e-02	1.077248e-02	1.081322e-02	1.113781e-02	1.847377e-01	-1.680748e-01	2.217538e-03	-9.329880e-03	8.251768e-02	5.723667e-02	-6.769878e-02	-1.678951e-02	-5.289174e-02	9.466875e-02	6.341800e-02	-4.031610e-03	5.021843e-03	2.852090e-03	-1.473653e-02	-7.995584e-02	-3.105712e-02	-2.004196e-02	3.433453e-03	5.439491e-02	1.389846e-02	-6.467938e-02	1.010453e-02	4.296547e-02	4.052565e-02	1.680812e-02	7.428050e-03	8.482896e-03	4.633548e-04	1.176883e-02	7.112814e-03	7.314626e-03	-4.383142e-02	-5.956789e-02	-4.440400e-02	-1.345954e-02	-3.553905e-02	5.171008e-02	-1.535878e-01	-6.200700e-02	-7.491948e-03	-1.938168e-03	6.706499e-02	2.194036e-02	-3.282910e-02	-3.323700e-02	-7.121271e-02	-1.098172e-03	-9.160169e-02	-5.271520e-03	1.704332e-01	5.392544e-03	1.398927e-03	1.684708e-03	-3.291631e-02	4.537628e-03	-5.103816e-02	-4.937719e-02	-3.290251e-02	-1.781714e-02	-2.646086e-02	2.065917e-02	-2.698487e-02	-2.334707e-02	3.998091e-03	3.102759e-02	3.336235e-02	6.885725e-03	3.590416e-02	3.786626e-02	4.922014e-02	7.125387e-02	1.241269e-02	4.484590e-02	4.693899e-02	8.190390e-03	6.018553e-02	2.305541e-02	2.452981e-02	7.783662e-03	7.965170e-03	1.475276e-02	5.770397e-03	6.077475e-03	6.442220e-03	6.703660e-03	1.050608e-02	1.100693e-02	1.127793e-02	8.753053e-03	9.049031e-03	-5.718873e-02	-5.496183e-02	-3.297477e-02	-3.181639e-02	-4.712916e-02	-3.211439e-02	-4.581189e-02	-3.541592e-02	-4.209454e-02	-4.020624e-02	-3.856787e-02	-3.713432e-02	-3.614540e-02	-3.461556e-02	-3.389376e-02	-3.338817e-02	-3.305358e-02	-3.284703e-02	-3.276206e-02	-3.273118e-02	-3.271177e-02	-3.429246e-02	-3.594479e-02	-3.685427e-02	-3.904907e-02	-4.026775e-02	-4.714747e-02	-4.831309e-02	2.610410e-02	2.792247e-02	2.924806e-02	1.279599e-02	1.318385e-02	-4.894965e-02	-4.757510e-02	-4.417059e-02	-4.000782e-02	-4.761439e-02	-4.908525e-02	-5.000937e-02	-4.981430e-02	-4.866280e-02	-4.925897e-02	-2.778063e-02	-2.074940e-02	-4.808956e-02	-4.626950e-02	1.573201e-02	1.798202e-02	1.926474e-02	9.386631e-03	9.731964e-03	-7.260977e-02	1.522508e-01	1.506076e-01	-9.994157e-02	5.950579e-03	-6.281814e-02	-4.195083e-02	8.407252e-02	2.642777e-03	4.045564e-03	1.044323e-01	7.291858e-02	-2.355424e-02	-1.360780e-02	-5.001055e-03	-5.103967e-02	2.083823e-02	-1.635698e-02	-8.243352e-02	3.472021e-02	4.832090e-03	-3.799989e-02	-2.634314e-02	3.081157e-03	1.022603e-02	4.088388e-02	1.607363e-02	1.312790e-02	4.997928e-02	5.218348e-02	5.142412e-03	5.416891e-03	-1.140125e-01	-5.680109e-02	-5.903655e-02	-4.796131e-02	-1.211506e-02	-3.006731e-02	1.849256e-02	6.357535e-03	-1.390998e-01	-1.400164e-01	-7.341013e-03	4.785251e-02	-4.944168e-02	4.092384e-02	5.459898e-02	-1.597832e-02	3.615045e-03	1.235844e-02	-1.695834e-03	6.465166e-03	6.556131e-03	-5.471558e-02	-1.033493e-02	4.592097e-02	5.718255e-02	1.971824e-02	-5.395250e-03	1.210752e-01	6.172578e-03	1.726439e-03	2.576807e-03	-3.002147e-02	4.448753e-03	-4.666894e-02	-3.009139e-02	-1.019399e-02	-3.013150e-02	-2.088858e-02	-1.840796e-02	2.996463e-02	3.240552e-02	3.689515e-02	3.919114e-02	6.152312e-02	1.076530e-02	4.244807e-02	4.410829e-02	9.853916e-03	2.499573e-02	2.651177e-02	2.205118e-02	6.623078e-03	6.849153e-03	6.936022e-03	5.646058e-03	8.936158e-03	9.393561e-03	7.089981e-03	7.304761e-03	1.723649e-02	-5.282829e-02	-2.995737e-02	-2.981586e-02	-3.980377e-02	-4.060006e-02	-3.855057e-02	-3.342776e-02	-3.674087e-02	-3.529679e-02	-3.423082e-02	-3.272524e-02	-3.203546e-02	-3.143423e-02	-3.098492e-02	-3.065976e-02	-3.042183e-02	-3.026421e-02	-1.918692e-02	-2.481630e-02	-2.751949e-02	-2.967425e-0