# vtk DataFile Version 3.0
vtk output
ASCII
DATASET UNSTRUCTURED_GRID
POINTS 5233 float
9.997500e-01	-3.632909e-05	0.0	9.990000e-01	-1.452618e-04	0.0	9.977600e-01	-3.252008e-04	0.0	9.960200e-01	-5.774943e-04	0.0	9.937800e-01	-9.022942e-04	0.0	9.910500e-01	-1.298763e-03	0.0	9.878400e-01	-1.766726e-03	0.0	9.841300e-01	-2.311194e-03	0.0	9.799500e-01	-2.930640e-03	0.0	9.752800e-01	-3.631444e-03	0.0	9.701500e-01	-4.412625e-03	0.0	9.645400e-01	-5.280292e-03	0.0	9.584700e-01	-6.233365e-03	0.0	9.519400e-01	-7.272227e-03	0.0	9.449600e-01	-8.393908e-03	0.0	9.375400e-01	-9.593773e-03	0.0	9.296900e-01	-1.086609e-02	0.0	9.214000e-01	-1.220804e-02	0.0	9.127000e-01	-1.361074e-02	0.0	9.035800e-01	-1.507272e-02	0.0	8.940600e-01	-1.658877e-02	0.0	8.841500e-01	-1.815610e-02	0.0	8.738500e-01	-1.977361e-02	0.0	8.631800e-01	-2.143627e-02	0.0	8.521600e-01	-2.313752e-02	0.0	8.407700e-01	-2.487471e-02	0.0	8.290500e-01	-2.663345e-02	0.0	8.170100e-01	-2.840162e-02	0.0	8.046400e-01	-3.016792e-02	0.0	7.919700e-01	-3.191393e-02	0.0	7.790100e-01	-3.362378e-02	0.0	7.657800e-01	-3.528073e-02	0.0	7.522800e-01	-3.687177e-02	0.0	7.385200e-01	-3.838440e-02	0.0	7.245300e-01	-3.980643e-02	0.0	7.103200e-01	-4.113073e-02	0.0	6.958900e-01	-4.235375e-02	0.0	6.812700e-01	-4.347212e-02	0.0	6.664700e-01	-4.448693e-02	0.0	6.515000e-01	-4.540154e-02	0.0	6.363800e-01	-4.622067e-02	0.0	6.211300e-01	-4.695082e-02	0.0	6.057600e-01	-4.760016e-02	0.0	5.902800e-01	-4.817747e-02	0.0	5.747100e-01	-4.869148e-02	0.0	5.590600e-01	-4.915119e-02	0.0	5.433600e-01	-4.956464e-02	0.0	5.276100e-01	-4.993996e-02	0.0	5.118400e-01	-5.028359e-02	0.0	4.960500e-01	-5.060149e-02	0.0	4.802700e-01	-5.089775e-02	0.0	4.645100e-01	-5.117554e-02	0.0	4.487800e-01	-5.143670e-02	0.0	4.331100e-01	-5.168146e-02	0.0	4.175000e-01	-5.190932e-02	0.0	4.019700e-01	-5.211839e-02	0.0	3.865400e-01	-5.230586e-02	0.0	3.712300e-01	-5.246816e-02	0.0	3.560400e-01	-5.260130e-02	0.0	3.409900e-01	-5.270061e-02	0.0	3.261100e-01	-5.276113e-02	0.0	3.114000e-01	-5.277790e-02	0.0	2.968700e-01	-5.274582e-02	0.0	2.825500e-01	-5.265996e-02	0.0	2.684500e-01	-5.251559e-02	0.0	2.545700e-01	-5.230801e-02	0.0	2.409400e-01	-5.203324e-02	0.0	2.275700e-01	-5.168749e-02	0.0	2.144700e-01	-5.126729e-02	0.0	2.016600e-01	-5.076993e-02	0.0	1.891400e-01	-5.019238e-02	0.0	1.769300e-01	-4.953284e-02	0.0	1.650400e-01	-4.878952e-02	0.0	1.534900e-01	-4.796177e-02	0.0	1.422900e-01	-4.704883e-02	0.0	1.314400e-01	-4.604934e-02	0.0	1.209500e-01	-4.496296e-02	0.0	1.108500e-01	-4.379208e-02	0.0	1.011300e-01	-4.253503e-02	0.0	9.181000e-02	-4.119389e-02	0.0	8.290000e-02	-3.976997e-02	0.0	7.440000e-02	-3.826304e-02	0.0	6.633000e-02	-3.667657e-02	0.0	5.869000e-02	-3.501058e-02	0.0	5.149000e-02	-3.326708e-02	0.0	4.474000e-02	-3.144844e-02	0.0	3.844000e-02	-2.955433e-02	0.0	3.260000e-02	-2.758711e-02	0.0	2.723000e-02	-2.554977e-02	0.0	2.232000e-02	-2.343708e-02	0.0	1.790000e-02	-2.126113e-02	0.0	1.395000e-02	-1.901092e-02	0.0	1.049000e-02	-1.669561e-02	0.0	7.520000e-03	-1.431461e-02	0.0	5.040000e-03	-1.186637e-02	0.0	3.050000e-03	-9.347302e-03	0.0	1.560000e-03	-6.769269e-03	0.0	5.600000e-04	-4.108233e-03	0.0	6.000000e-05	-1.363608e-03	0.0	0.000000e+00	0.000000e+00	0.0	6.000000e-05	1.350236e-03	0.0	5.600000e-04	4.050826e-03	0.0	1.560000e-03	6.663226e-03	0.0	3.050000e-03	9.195473e-03	0.0	5.040000e-03	1.167583e-02	0.0	7.520000e-03	1.409653e-02	0.0	1.049000e-02	1.646478e-02	0.0	1.395000e-02	1.878581e-02	0.0	1.790000e-02	2.106403e-02	0.0	2.232000e-02	2.329392e-02	0.0	2.723000e-02	2.549065e-02	0.0	3.260000e-02	2.764558e-02	0.0	3.844000e-02	2.976800e-02	0.0	4.474000e-02	3.185849e-02	0.0	5.149000e-02	3.391797e-02	0.0	5.869000e-02	3.595015e-02	0.0	6.633000e-02	3.795531e-02	0.0	7.440000e-02	3.993367e-02	0.0	8.290000e-02	4.188739e-02	0.0	9.181000e-02	4.381361e-02	0.0	1.011300e-01	4.571359e-02	0.0	1.108500e-01	4.758588e-02	0.0	1.209500e-01	4.942683e-02	0.0	1.314400e-01	5.123782e-02	0.0	1.422900e-01	5.301272e-02	0.0	1.534900e-01	5.474871e-02	0.0	1.650400e-01	5.644398e-02	0.0	1.769300e-01	5.809472e-02	0.0	1.891400e-01	5.969553e-02	0.0	2.016600e-01	6.124223e-02	0.0	2.144700e-01	6.272926e-02	0.0	2.275700e-01	6.415328e-02	0.0	2.409400e-01	6.550849e-02	0.0	2.545700e-01	6.679020e-02	0.0	2.684500e-01	6.799357e-02	0.0	2.825500e-01	6.911218e-02	0.0	2.968700e-01	7.014214e-02	0.0	3.114000e-01	7.107860e-02	0.0	3.261100e-01	7.191555e-02	0.0	3.409900e-01	7.264840e-02	0.0	3.560400e-01	7.327286e-02	0.0	3.712300e-01	7.378330e-02	0.0	3.865400e-01	7.417483e-02	0.0	4.019700e-01	7.444303e-02	0.0	4.175000e-01	7.458295e-02	0.0	4.331100e-01	7.458992e-02	0.0	4.487800e-01	7.445955e-02	0.0	4.645100e-01	7.418745e-02	0.0	4.802700e-01	7.376991e-02	0.0	4.960500e-01	7.320341e-02	0.0	5.118400e-01	7.248482e-02	0.0	5.276100e-01	7.161270e-02	0.0	5.433600e-01	7.058503e-02	0.0	5.590600e-01	6.940265e-02	0.0	5.747100e-01	6.806549e-02	0.0	5.902800e-01	6.657731e-02	0.0	6.057600e-01	6.494175e-02	0.0	6.211300e-01	6.316504e-02	0.0	6.363800e-01	6.125402e-02	0.0	6.515000e-01	5.921698e-02	0.0	6.664700e-01	5.706516e-02	0.0	6.812700e-01	5.481151e-02	0.0	6.958900e-01	5.246892e-02	0.0	7.103200e-01	5.005129e-02	0.0	7.245300e-01	4.757686e-02	0.0	7.385200e-01	4.505941e-02	0.0	7.522800e-01	4.251466e-02	0.0	7.657800e-01	3.996213e-02	0.0	7.790100e-01	3.741749e-02	0.0	7.919700e-01	3.489399e-02	0.0	8.046400e-01	3.240819e-02	0.0	8.170100e-01	2.997405e-02	0.0	8.290500e-01	2.760884e-02	0.0	8.407700e-01	2.532127e-02	0.0	8.521600e-01	2.312328e-02	0.0	8.631800e-01	2.103157e-02	0.0	8.738500e-01	1.905016e-02	0.0	8.841500e-01	1.718895e-02	0.0	8.940600e-01	1.545535e-02	0.0	9.035800e-01	1.385019e-02	0.0	9.127000e-01	1.237271e-02	0.0	9.214000e-01	1.102010e-02	0.0	9.296900e-01	9.781662e-03	0.0	9.375400e-01	8.650401e-03	0.0	9.449600e-01	7.612208e-03	0.0	9.519400e-01	6.656126e-03	0.0	9.584700e-01	5.772587e-03	0.0	9.645400e-01	4.954359e-03	0.0	9.701500e-01	4.195689e-03	0.0	9.752800e-01	3.496291e-03	0.0	9.799500e-01	2.852720e-03	0.0	9.841300e-01	2.270023e-03	0.0	9.878400e-01	1.747228e-03	0.0	9.910500e-01	1.290667e-03	0.0	9.937800e-01	8.994899e-04	0.0	9.960200e-01	5.767420e-04	0.0	9.977600e-01	3.250644e-04	0.0	9.990000e-01	1.452495e-04	0.0	9.997500e-01	3.632890e-05	0.0	1.000000e+00	0.000000e+00	0.0	1.984229e+01	2.506660e+00	0.0	1.937166e+01	4.973800e+00	0.0	1.859553e+01	7.362490e+00	0.0	1.752613e+01	9.635070e+00	0.0	1.618034e+01	1.175571e+01	0.0	1.457937e+01	1.369094e+01	0.0	1.274848e+01	1.541027e+01	0.0	1.071654e+01	1.688656e+01	0.0	8.515590e+00	1.809654e+01	0.0	6.180340e+00	1.902113e+01	0.0	3.747630e+00	1.964575e+01	0.0	1.255810e+00	1.996053e+01	0.0	-1.255810e+00	1.996053e+01	0.0	-3.747630e+00	1.964574e+01	0.0	-6.180340e+00	1.902113e+01	0.0	-8.515590e+00	1.809654e+01	0.0	-1.071654e+01	1.688656e+01	0.0	-1.274848e+01	1.541026e+01	0.0	-1.457937e+01	1.369094e+01	0.0	-1.618034e+01	1.175570e+01	0.0	-1.752613e+01	9.635070e+00	0.0	-1.859553e+01	7.362490e+00	0.0	-1.937166e+01	4.973800e+00	0.0	-1.984229e+01	2.506660e+00	0.0	-2.000000e+01	0.000000e+00	0.0	-1.984229e+01	-2.506670e+00	0.0	-1.937166e+01	-4.973800e+00	0.0	-1.859553e+01	-7.362490e+00	0.0	-1.752613e+01	-9.635080e+00	0.0	-1.618034e+01	-1.175571e+01	0.0	-1.457937e+01	-1.369094e+01	0.0	-1.274848e+01	-1.541027e+01	0.0	-1.071653e+01	-1.688656e+01	0.0	-8.515580e+00	-1.809654e+01	0.0	-6.180340e+00	-1.902113e+01	0.0	-3.747620e+00	-1.964575e+01	0.0	-1.255810e+00	-1.996053e+01	0.0	1.255810e+00	-1.996053e+01	0.0	3.747630e+00	-1.964574e+01	0.0	6.180340e+00	-1.902113e+01	0.0	8.515590e+00	-1.809654e+01	0.0	1.071654e+01	-1.688656e+01	0.0	1.274848e+01	-1.541026e+01	0.0	1.457937e+01	-1.369094e+01	0.0	1.618034e+01	-1.175570e+01	0.0	1.752614e+01	-9.635070e+00	0.0	1.859553e+01	-7.362490e+00	0.0	1.937166e+01	-4.973790e+00	0.0	1.984229e+01	-2.506660e+00	0.0	2.000000e+01	0.000000e+00	0.0	6.093892e-02	-4.285144e-02	0.0	6.600410e-01	-5.844939e-02	0.0	4.255297e-01	8.863687e-02	0.0	6.904536e-01	6.677179e-02	0.0	3.791252e-01	-6.656260e-02	0.0	9.994589e-01	-7.258723e-04	0.0	9.985402e-01	-1.320872e-03	0.0	7.738251e-01	-4.634860e-02	0.0	6.897588e-01	-5.606349e-02	0.0	-1.367138e-03	6.233161e-03	0.0	7.467650e-01	-4.997311e-02	0.0	5.838090e-01	8.122916e-02	0.0	9.927651e-01	-3.598793e-03	0.0	9.898616e-01	-4.480982e-03	0.0	5.994275e-01	7.958836e-02	0.0	7.187102e-01	-5.322760e-02	0.0	-1.548094e-03	7.305687e-04	0.0	9.864673e-01	-5.441292e-03	0.0	9.825916e-01	-6.470515e-03	0.0	-1.358171e-03	-6.336027e-03	0.0	6.449375e-01	-5.947833e-02	0.0	8.244939e-01	-3.842106e-02	0.0	7.997632e-01	-4.246746e-02	0.0	3.482204e-01	8.660152e-02	0.0	8.478910e-01	-3.434813e-02	0.0	2.468390e-01	7.862192e-02	0.0	8.698983e-01	-3.032503e-02	0.0	1.001408e-02	2.079824e-02	0.0	8.904116e-01	-2.642047e-02	0.0	7.722818e-02	-4.682321e-02	0.0	9.093595e-01	-2.267674e-02	0.0	-1.865007e-03	-3.138557e-03	0.0	9.422484e-01	-1.580904e-02	0.0	9.266631e-01	-1.912583e-02	0.0	1.806769e-02	-2.637803e-02	0.0	4.256782e-01	-6.623083e-02	0.0	8.590773e-01	-3.232303e-02	0.0	9.560748e-01	-1.276843e-02	0.0	9.782290e-01	-7.589010e-03	0.0	9.680882e-01	-1.002215e-02	0.0	1.584746e-01	-5.900398e-02	0.0	9.000881e-01	-2.452666e-02	0.0	7.604299e-01	-4.820093e-02	0.0	9.971132e-01	-2.058079e-03	0.0	5.988429e-01	-6.197001e-02	0.0	4.413590e-01	-6.604490e-02	0.0	5.361230e-01	-6.418097e-02	0.0	4.728882e-01	-6.557080e-02	0.0	5.045102e-01	-6.495629e-02	0.0	4.886866e-01	-6.528085e-02	0.0	1.251652e-01	-5.514410e-02	0.0	2.799454e-02	-3.148915e-02	0.0	3.945492e-01	-6.649285e-02	0.0	4.640172e-02	-3.855324e-02	0.0	4.100682e-01	-6.638196e-02	0.0	3.187978e-01	-6.636792e-02	0.0	3.486567e-01	-6.657206e-02	0.0	3.367005e-02	-3.391128e-02	0.0	2.896281e-01	-6.592628e-02	0.0	9.346743e-01	-1.743395e-02	0.0	1.470184e-01	-5.780948e-02	0.0	1.948400e-01	-6.200962e-02	0.0	8.600599e-02	-4.867547e-02	0.0	1.048018e-01	-5.210645e-02	0.0	5.676108e-01	-6.321237e-02	0.0	1.702734e-01	-6.010386e-02	0.0	6.143295e-01	-6.122907e-02	0.0	8.803501e-01	-2.835590e-02	0.0	2.280418e-02	-2.897635e-02	0.0	9.951875e-01	-2.803889e-03	0.0	6.796488e-03	-1.820110e-02	0.0	1.798544e-02	2.626178e-02	0.0	9.182203e-01	-2.087471e-02	0.0	9.49388
[...]
POINT_DATA 5233

SCALARS Conservative_1 float 1
LOOKUP_TABLE default
4.306337e-01	2.179662e-01	1.782395e-01	1.487358e-01	1.294687e-01	1.147323e-01	1.029991e-01	9.347942e-02	8.567017e-02	7.919428e-02	7.377129e-02	6.920294e-02	6.530742e-02	6.197688e-02	5.910148e-02	5.660558e-02	5.442509e-02	5.238815e-02	5.047365e-02	4.872862e-02	4.731931e-02	4.613735e-02	4.516954e-02	4.438560e-02	4.370295e-02	4.318655e-02	4.271816e-02	4.237994e-02	4.204444e-02	4.175553e-02	4.148191e-02	4.112627e-02	4.080516e-02	4.032223e-02	3.984284e-02	3.920873e-02	3.857115e-02	3.779103e-02	3.702844e-02	3.614962e-02	3.531432e-02	3.439548e-02	3.354654e-02	3.264294e-02	3.182540e-02	3.098404e-02	3.022671e-02	2.947851e-02	2.879692e-02	2.814757e-02	2.755393e-02	2.699294e-02	2.646183e-02	2.599006e-02	2.552317e-02	2.512169e-02	2.471568e-02	2.436129e-02	2.399475e-02	2.366997e-02	2.332535e-02	2.301523e-02	2.267430e-02	2.236059e-02	2.200918e-02	2.167589e-02	2.129947e-02	2.093254e-02	2.052259e-02	2.010299e-02	1.965227e-02	1.916856e-02	1.866575e-02	1.811562e-02	1.753903e-02	1.692559e-02	1.626140e-02	1.556377e-02	1.481263e-02	1.401786e-02	1.316488e-02	1.225891e-02	1.129137e-02	1.025981e-02	9.157317e-03	7.983610e-03	6.729416e-03	5.393116e-03	3.979519e-03	2.475351e-03	9.292492e-04	-4.968927e-04	-2.319521e-03	-4.727117e-03	-2.098591e-03	6.245882e-03	8.066336e-03	2.535421e-03	-4.661696e-03	-1.133125e-02	-1.751908e-02	-3.101100e-02	-5.128884e-02	-6.789966e-02	-8.157809e-02	-1.027406e-01	-1.298201e-01	-1.500091e-01	-1.593858e-01	-1.629258e-01	-1.647116e-01	-1.655577e-01	-1.652596e-01	-1.634643e-01	-1.604740e-01	-1.566989e-01	-1.526251e-01	-1.486277e-01	-1.450730e-01	-1.420798e-01	-1.396413e-01	-1.378609e-01	-1.367813e-01	-1.363433e-01	-1.361836e-01	-1.360101e-01	-1.357444e-01	-1.354462e-01	-1.351909e-01	-1.350100e-01	-1.346741e-01	-1.341984e-01	-1.334521e-01	-1.325451e-01	-1.316873e-01	-1.309249e-01	-1.302680e-01	-1.290152e-01	-1.266404e-01	-1.226612e-01	-1.167819e-01	-1.073215e-01	-9.469217e-02	-8.335733e-02	-7.863780e-02	-7.943747e-02	-8.195512e-02	-8.394890e-02	-8.511229e-02	-8.578455e-02	-8.598904e-02	-8.584865e-02	-8.519743e-02	-8.422924e-02	-8.304093e-02	-8.157516e-02	-8.009513e-02	-7.839721e-02	-7.665900e-02	-7.487964e-02	-7.301900e-02	-7.124727e-02	-6.940638e-02	-6.771881e-02	-6.599045e-02	-6.444930e-02	-6.290064e-02	-6.156233e-02	-6.023758e-02	-5.913521e-02	-5.806221e-02	-5.722700e-02	-5.641265e-02	-5.585791e-02	-5.541174e-02	-5.515976e-02	-5.513760e-02	-5.533047e-02	-5.586640e-02	-5.666898e-02	-5.799949e-02	-5.964078e-02	-6.155784e-02	-6.367584e-02	-6.620281e-02	-6.906815e-02	-7.236606e-02	-7.605261e-02	-8.022731e-02	-8.494477e-02	-9.036592e-02	-9.664904e-02	-1.040626e-01	-1.128966e-01	-1.235936e-01	-1.367227e-01	-1.566969e-01	-1.746425e-01	-3.334410e-01	3.701977e-02	-1.144477e-04	-1.252484e-04	-1.353673e-04	-1.439777e-04	-1.545109e-04	-1.624389e-04	-1.712075e-04	-1.740018e-04	-1.677470e-04	-1.658170e-04	-1.713713e-04	-1.727579e-04	-1.750797e-04	-1.666778e-04	-1.475710e-04	-1.385736e-04	-1.197187e-04	-1.061716e-04	-9.131848e-05	-7.195603e-05	-4.502654e-05	-2.896237e-05	3.114398e-05	1.747342e-04	1.263718e-04	1.503628e-04	2.147348e-04	2.223366e-04	1.359719e-04	1.686807e-04	1.966447e-04	2.111950e-04	2.228236e-04	2.247537e-04	2.239147e-04	2.125057e-04	1.780156e-04	1.474257e-04	8.949054e-05	6.570916e-05	5.394172e-05	3.300084e-05	1.190318e-05	-9.926450e-06	-3.025295e-05	-4.818316e-05	-6.360733e-05	-7.840483e-05	-9.138595e-05	-1.035702e-04	9.882480e-03	3.238124e-02	-6.870789e-02	-6.099854e-02	2.169776e-02	3.356883e-01	2.405468e-01	3.753990e-02	3.389464e-02	-3.164952e-02	3.647275e-02	-6.958581e-02	1.275870e-01	1.116285e-01	-6.845964e-02	3.527261e-02	-1.332542e-02	9.956405e-02	9.014023e-02	4.061990e-03	3.161353e-02	3.966763e-02	3.855456e-02	-9.353408e-02	4.104529e-02	-1.098788e-01	4.285623e-02	-1.106551e-01	4.533976e-02	1.159427e-02	4.881437e-02	-1.775137e-03	5.722217e-02	5.272897e-02	1.659372e-03	2.276768e-02	4.187497e-02	6.312183e-02	8.255208e-02	7.117001e-02	1.644328e-02	4.695222e-02	3.704642e-02	1.827005e-01	2.923613e-02	2.318756e-02	2.639223e-02	2.410661e-02	2.517926e-02	2.463059e-02	1.493585e-02	4.374581e-03	2.202615e-02	7.902919e-03	2.239565e-02	2.049043e-02	2.107170e-02	5.628157e-03	1.992194e-02	5.485521e-02	1.598071e-02	1.768288e-02	1.235968e-02	1.373851e-02	2.774983e-02	1.688800e-02	3.003187e-02	4.398890e-02	3.054761e-03	1.497577e-01	-2.948822e-03	-1.339733e-01	5.076520e-02	5.994997e-02	7.633205e-02	-4.556944e-02	4.029521e-02	1.902986e-02	2.706408e-02	3.591166e-02	3.805446e-02	1.436008e-02	1.839048e-02	2.849548e-02	3.317050e-02	8.925963e-03	-3.583868e-03	3.100751e-04	2.136875e-02	1.729608e-02	4.539715e-01	1.872482e-02	1.307614e-02	2.019602e-02	1.934254e-02	2.362715e-02	3.462415e-02	-1.981587e-02	6.388211e-03	-7.212538e-02	-8.168506e-03	-1.410766e-01	-1.385832e-01	-1.427086e-01	-1.178366e-01	-6.815518e-02	-1.655340e-01	-7.251353e-02	-7.181898e-02	-8.194735e-02	-7.343101e-02	-5.403791e-02	-7.234641e-02	-6.984429e-02	-7.543737e-02	-5.991712e-02	-5.658431e-02	-1.278344e-01	-8.723162e-02	-6.992881e-02	-6.419007e-02	-1.217737e-01	-1.352217e-01	-1.060506e-01	-1.085767e-01	-1.144872e-01	-1.026005e-01	-7.096167e-02	-6.966855e-02	-1.155474e-01	-1.167155e-01	-6.605960e-02	-1.134037e-01	-1.120612e-01	-6.351241e-02	-7.054999e-02	-5.659739e-02	-5.866115e-02	-5.358514e-02	-5.489213e-02	-5.242261e-02	-5.276008e-02	-5.516338e-02	-5.275211e-02	-6.687678e-02	-5.819558e-02	-7.739529e-02	-5.250107e-02	-5.326048e-02	-5.307985e-02	-5.249335e-02	-5.567088e-02	-5.416053e-02	-5.977408e-02	-5.756243e-02	-6.477564e-02	-6.221683e-02	-7.144050e-02	-6.730237e-02	-1.128360e-01	-1.110665e-01	-1.150466e-01	-1.139437e-01	-1.412418e-01	-1.160345e-01	-1.262628e-01	-1.426220e-01	1.805135e-02	-6.666676e-02	6.681632e-02	3.907565e-02	2.076854e-02	2.577195e-02	-5.561223e-02	-1.382588e-01	-8.724845e-02	-1.245432e-01	-1.315155e-01	-1.073185e-01	-1.195178e-01	-9.350988e-02	-1.011007e-01	-1.046407e-01	-1.106614e-01	-1.231263e-01	-9.926378e-02	-8.491116e-02	-6.192356e-02	-3.888273e-01	-2.099756e-01	-2.804869e-01	3.080238e-02	6.803790e-03	-1.402687e-01	-7.261540e-02	1.478334e-03	-9.682046e-04	1.076826e-02	1.547765e-02	1.962637e-02	-1.112303e-01	-2.931387e-02	-2.002705e-02	1.721427e-02	3.019398e-02	4.765934e-02	-1.263612e-03	-5.798586e-02	2.950996e-02	3.426858e-02	1.058259e-01	1.797234e-02	3.901728e-02	3.718262e-02	1.143678e-02	3.853653e-03	1.593367e-02	1.129288e-03	6.354661e-02	1.431903e-02	3.094455e-02	2.805057e-02	2.042774e-02	1.081743e-02	1.906339e-02	4.404947e-02	3.493695e-02	-7.512067e-02	-1.123773e-01	-5.345618e-02	-4.892277e-02	-9.995841e-02	-5.265502e-02	-9.427221e-02	-5.035840e-02	-1.050704e-01	-6.956638e-02	-6.001202e-02	-6.609235e-02	-5.119878e-02	-1.168366e-01	-6.931175e-02	-8.848735e-02	-8.826496e-02	-7.547153e-02	-8.954958e-02	-1.021682e-01	2.874257e-02	1.563655e-02	-9.314187e-02	-9.574989e-02	-1.197531e-01	-7.734430e-02	-1.323257e-01	-5.219675e-02	1.466546e-02	-1.257502e-01	-1.787674e-01	-1.541064e-01	-5.697838e-02	-3.877605e-02	-2.898428e-03	-5.838380e-03	-1.013090e-02	2.372044e-03	1.504790e-01	9.404313e-03	1.957128e-01	1.390420e-01	-5.837411e-02	2.331478e-02	9.462121e-02	4.126338e-02	-5.736504e-02	1.200986e-01	-5.369099e-04	2.004219e-02	-5.662985e-02	3.802501e-02	-8.399540e-02	4.006798e-02	4.258088e-02	1.013849e-02	4.574632e-02	4.975130e-02	5.692463e-02	4.718876e-03	5.997767e-02	6.771678e-02	8.580007e-02	1.349134e-02	3.291700e-02	3.362682e-02	1.651447e-01	2.082519e-02	2.124980e-02	2.173194e-02	3.574930e-03	1.935715e-02	1.971038e-02	1.821239e-02	6.804109e-03	5.190466e-02	5.425494e-02	1.391892e-02	1.201598e-02	2.393880e-02	2.586980e-02	7.265723e-02	7.856749e-02	3.159111e-02	3.230500e-02	1.254100e-02	1.304682e-02	2.453328e-02	2.522503e-02	7.737321e-03	8.606105e-03	4.171889e-05	1.849381e-02	1.875743e-02	1.502040e-02	1.533661e-02	1.619393e-02	1.646972e-02	1.747360e-02	1.770579e-02	1.671579e-02	-1.379541e-02	-1.336245e-03	-1.210702e-01	-9.582192e-02	-5.972823e-02	-5.997827e-02	-5.985760e-02	-5.956667e-02	-8.239692e-02	-7.304277e-02	-5.679930e-02	-5.930916e-02	-5.901054e-02	-5.498002e-02	-5.501468e-02	-6.325286e-02	-1.145767e-01	-1.174659e-01	-8.695917e-02	-8.553372e-02	-9.496969e-02	-9.680467e-02	-9.819361e-02	-4.876704e-02	-5.014461e-02	-5.073784e-02	-4.905032e-02	-4.875247e-02	-5.347543e-02	-4.974970e-02	-4.925426e-02	-4.861341e-02	-4.869496e-02	-4.930017e-02	-4.973543e-02	-5.128623e-02	-5.199739e-02	-5.418661e-02	-5.502292e-02	-5.872523e-02	-5.930833e-02	-5.580438e-02	-5.657232e-02	-9.072139e-02	-9.170435e-02	-9.266313e-02	-9.349361e-02	-1.051632e-01	-1.210689e-01	-1.196774e-01	3.565646e-02	3.636209e-02	2.222466e-02	2.277447e-02	-4.596890e-02	-1.169108e-01	-1.047675e-01	-1.078286e-01	-7.944280e-02	-8.203656e-02	-5.622828e-02	-6.210569e-02	-6.083557e-02	-5.866562e-02	2.660894e-02	2.728606e-02	5.798449e-03	3.380263e-03	1.698367e-02	1.080703e-04	1.666015e-02	1.490943e-02	3.150023e-02	2.010231e-02	4.605920e-02	-1.014769e-01	-9.326213e-02	-6.748295e-02	-3.960741e-02	-1.104268e-01	-2.286492e-01	-2.079379e-01	1.504816e-01	6.830807e-03	3.019666e-03	-1.219538e-02	1.040740e-02	4.822492e-02	1.033728e-01	-4.873733e-02	2.545083e-01	-1.424304e-03	2.718652e-02	8.217331e-04	2.788211e-02	1.958513e-03	3.814085e-02	-2.744242e-05	1.561444e-02	3.697351e-02	2.644468e-02	1.143210e-01	9.219116e-04	-8.054022e-02	-4.972522e-02	-6.136244e-02	-4.617133e-02	-1.226562e-01	-4.975986e-02	-6.528692e-02	-4.834067e-02	-7.556706e-02	-9.464213e-02	-2.276868e-01	2.628028e-03	-2.602091e-02	-8.618161e-02	-1.882182e-02	6.289640e-02	9.939215e-03	-8.617333e-03	1.259327e-02	1.796364e-02	4.047125e-03	-6.356479e-02	-4.524633e-02	-4.431100e-02	-4.576642e-02	-8.640119e-02	-6.423885e-02	-4.870208e-02	-4.771023e-02	-5.443246e-02	-6.301323e-02	-6.904580e-02	-8.355760e-02	2.502543e-02	2.574919e-02	1.358752e-02	-7.654529e-02	-7.650088e-02	-7.549725e-02	-1.405642e-01	-4.976828e-02	-3.288967e-02	-1.859234e-03	-4.569810e-03	5.015522e-03	2.272695e-01	2.552518e-01	6.721465e-02	9.347067e-02	-4.822701e-02	1.761267e-02	-4.867004e-02	3.492811e-02	3.587772e-02	3.940691e-02	4.080663e-02	8.829584e-03	9.409666e-03	4.232096e-02	4.411301e-02	5.592548e-02	5.915878e-02	8.520715e-02	2.998842e-02	3.081977e-02	1.292272e-01	1.837277e-02	1.873111e-02	1.693163e-02	1.728033e-02	5.903274e-03	5.056649e-02	5.306968e-02	1.196684e-02	1.228480e-02	2.064926e-02	2.117910e-02	7.223733e-02	7.820709e-02	2.864846e-02	2.936495e-02	1.084535e-02	1.125533e-02	1.164208e-02	2.178101e-02	2.237073e-02	6.733964e-03	7.499403e-03	8.209118e-03	1.583222e-02	1.611624e-02	1.635362e-02	1.285225e-02	1.311175e-02	1.337359e-02	1.384025e-02	1.403225e-02	1.515447e-02	1.535600e-02	1.427779e-02	-9.934183e-02	-4.989165e-02	-4.990334e-02	-7.122127e-02	-4.988541e-02	-4.990482e-02	-4.984308e-02	-4.588940e-02	-5.281072e-02	-9.682274e-02	-9.839613e-02	-6.683054e-02	-6.789230e-02	-7.780709e-02	-7.944308e-02	-8.130127e-02	-4.460606e-02	-5.124130e-02	-4.980810e-02	-4.693474e-02	-4.620298e-02	-4.566867e-02	-4.475156e-02	-4.464497e-02	-4.447185e-02	-4.433594e-02	-4.433822e-02	-4.447232e-02	-4.485718e-02	-4.509828e-02	-4.543605e-02	-4.656554e-02	-4.921893e-02	-4.946343e-02	-4.701540e-02	-4.741714e-02	-4.791440e-02	-7.018377e-02	-7.136905e-02	-7.260004e-02	-7.373849e-02	-7.473290e-02	-9.949618e-02	-9.868753e-02	3.233872e-02	3.316590e-02	3.398159e-02	1.913780e-02	1.965141e-02	-9.660030e-02	-9.267451e-02	-8.608534e-02	-8.894041e-02	-9.190209e-02	-5.942875e-02	-4.225987e-02	-4.022941e-02	-4.273929e-02	-5.888142e-02	-5.662321e-02	-5.466299e-02	2.302453e-02	2.366053e-02	2.435295e-02	1.447772e-02	1.471889e-02	-3.850628e-04	9.354829e-03	-1.074567e-01	-7.656004e-02	1.825735e-02	-1.273972e-02	1.580483e-01	4.436660e-02	4.660483e-02	5.265380e-03	-9.330057e-02	-4.265954e-02	8.584729e-04	-6.242234e-02	6.716114e-05	-6.177349e-02	-9.922724e-02	-2.389534e-02	-4.127712e-02	-2.933865e-02	-8.945423e-02	1.010618e-01	2.969787e-02	1.098544e-02	3.640509e-03	1.465189e-02	9.026670e-03	1.558679e-02	1.292491e-02	-8.149640e-02	-4.231292e-02	-5.903129e-02	-5.662318e-02	-4.064458e-02	-6.005849e-02	-5.036215e-02	8.792949e-02	-7.803083e-02	3.527978e-02	-1.461902e-01	-8.708602e-02	1.123997e-01	6.512137e-02	2.770432e-03	2.442059e-02	-8.359746e-04	2.491465e-02	2.591427e-02	1.860486e-03	9.545607e-02	1.044140e-03	-4.213143e-02	-4.310016e-02	-3.796177e-02	-1.829214e-02	-5.308844e-02	-4.066419e-02	-4.537877e-02	-3.235989e-02	-4.360441e-02	-4.760105e-02	2.302545e-02	2.348981e-02	-7.212871e-02	-4.336174e-02	-3.529616e-02	-1.954648e-04	-3.374364e-03	4.500638e-03	6.108403e-02	8.106694e-02	-4.186125e-02	3.315250e-02	3.410616e-02	3.644594e-02	3.775688e-02	8.211659e-03	8.638592e-03	3.910667e-02	4.067883e-02	4.250665e-02	5.432822e-02	5.749768e-02	2.808995e-02	2.867739e-02	1.027498e-01	1.600699e-02	1.643009e-02	1.488530e-02	1.527920e-02	4.898417e-02	5.148214e-02	1.051170e-02	1.068206e-02	1.856329e-02	6.974807e-02	7.507519e-02	2.649318e-02	2.714548e-02	9.686578e-03	9.944333e-03	1.029347e-02	1.929323e-02	1.964977e-02	5.964596e-03	6.615129e-03	7.227849e-03	7.758310e-03	1.356213e-02	1.382460e-02	1.406015e-02	1.435435e-02	1.112488e-02	1.137324e-02	1.153357e-02	1.175669e-02	1.191354e-02	1.335166e-02	1.311333e-02	1.212945e-02	-4.286778e-02	-6.825098e-02	-6.482450e-02	-4.287032e-02	-4.279267e-02	-4.279310e-02	-4.239709e-02	-4.084438e-02	-7.874333e-02	-7.908924e-02	-5.157385e-02	-5.264671e-02	-6.133938e-02	-6.314968e-02	-6.498267e-02	-6.720851e-02	-4.890593e-02	-4.754543e-02	-4.633692e-02	-4.446818e-02	-4.371842e-02	-4.299090e-02	-4.253779e-02	-4.145448e-02	-4.131330e-02	-4.119539e-02	-4.081365e-02	-4.038411e-02	-4.068455e-02	-4.031755e-02	-4.073546e-02	-4.041807e-02	-4.094193e-02	-4.248092e-02	-4.298517e-02	-4.102013e-02	-4.171238e-02	-4.147294e-02	-4.217410e-02	-5.336281e-02	-5.442875e-02	-5.548541e-02	-5.685608e-02	-5.797951e-02	-5.899332e-02	-7.929587e-02	-7.925722e-02	3.039351e-02	3.120203e-02	3.217341e-02	1.669686e-02	1.733727e-02	1.760170e-02	-7.821964e-02	-7.524681e-02	-6.994847e-02	-6.970731e-02	-7.242037e-02	-7.490254e-02	-7.678514e-02	-3.785893e-02	-3.330706e-02	-2.940376e-02	-2.883077e-02	-5.054541e-02	-5.437526e-02	-5.245865e-02	2.044263e-02	2.084394e-02	2.169060e-02	2.212899e-02	1.230507e-02	1.252875e-02	1.270050e-02	2.736300e-03	-9.412677e-02	5.841801e-02	-1.569930e-01	2.013942e-03	2.373065e-02	8.417116e-03	1.255449e-03	-6.793716e-02	2.663187e-04	4.858947e-03	9.576960e-03	-4.892953e-02	-4.390385e-02	-2.641985e-02	-1.309725e-02	-8.514854e-03	-7.075108e-03	-8.711476e-03	2.886578e-05	9.712713e-02	-2.141524e-02	6.198007e-02	8.021053e-02	4.508908e-02	2.770516e-02	1.299393e-02	-8.362132e-02	-4.733910e-02	-5.218608e-02	-3.797150e-02	-3.795348e-02	-3.707377e-02	-3.768006e-02	-3.765456e-02	1.633262e-02	-1.987244e-02	-7.964742e-02	8.164176e-03	-1.674777e-01	-7.148762e-02	-6.372140e-03	1.721424e-01	1.839430e-01	4.326642e-02	5.421688e-03	-1.298279e-03	-5.046613e-02	5.059394e-04	-5.649300e-02	-2.206406e-02	-3.288293e-02	3.451841e-02	3.476780e-03	1.166772e-02	1.131867e-02	-7.522681e-02	-3.728121e-02	-5.428616e-02	7.480961e-02	2.222902e-02	-1.767633e-02	-2.730089e-02	-3.143679e-02	-3.749636e-02	2.085753e-02	-3.720849e-02	-3.131166e-02	-3.335696e-03	4.182950e-03	3.183921e-02	3.302119e-02	3.401082e-02	3.539278e-02	7.884672e-03	7.600414e-03	3.649718e-02	3.803923e-02	3.935302e-02	4.106384e-02	5.227720e-02	5.520427e-02	2.602631e-02	8.496228e-02	1.413832e-02	1.440699e-02	1.343860e-02	1.360449e-02	4.725791e-02	4.962343e-02	9.191209e-03	9.502772e-03	6.592837e-02	7.023293e-02	2.467899e-02	8.573066e-03	8.932695e-03	9.141924e-03	1.730053e-02	5.934686e-03	6.441987e-03	6.876608e-03	7.283522e-03	1.173100e-02	1.210111e-02	1.218323e-02	1.260393e-02	1.278396e-02	9.864833e-03	9.901777e-03	1.019620e-02	1.022584e-02	1.052617e-02	-6.466663e-02	-6.167780e-02	-5.897796e-02	-3.825720e-02	-3.764835e-02	-3.800185e-02	-3.737369e-02	-3.732240e-02	-6.177315e-02	-6.139669e-02	-3.896354e-02	-4.169619e-02	-5.153326e-02	-5.254154e-02	-5.450202e-02	-4.570603e-02	-4.472668e-02	-4.355558e-02	-4.286461e-02	-4.183014e-02	-4.124585e-02	-4.041891e-02	-3.970909e-02	-3.875149e-02	-3.837939e-02	-3.728664e-02	-3.706994e-02	-3.701061e-02	-3.725862e-02	-3.744179e-02	-4.150704e-02	-4.306477e-02	-4.290443e-02	-4.493661e-02	-4.518836e-02	-4.620375e-02	-4.753586e-02	-6.155265e-02	-6.219069e-02	2.887452e-02	2.999259e-02	3.083215e-02	1.473730e-02	1.545140e-02	-6.220868e-02	-6.020274e-02	-5.604048e-02	-5.676858e-02	-5.907232e-02	-6.095312e-02	-6.185544e-02	-6.190173e-02	-3.541100e-02	-3.280040e-02	-2.819339e-02	-2.225143e-02	-5.032871e-02	-4.876846e-02	1.839166e-02	1.957941e-02	1.057258e-02	1.090036e-02	1.094013e-02	1.126639e-02	1.862662e-01	-1.701311e-01	2.268342e-03	-9.455288e-03	8.322734e-02	5.769730e-02	-6.849900e-02	-1.706682e-02	-5.351327e-02	9.544840e-02	6.393018e-02	-4.076734e-03	5.108536e-03	2.911425e-03	-1.649810e-02	-8.096019e-02	-3.167469e-02	-2.040764e-02	3.500038e-03	5.483221e-02	1.403434e-02	-6.544269e-02	1.022106e-02	4.331259e-02	4.085351e-02	1.696140e-02	7.538422e-03	8.596241e-03	4.826399e-04	1.189290e-02	7.221570e-03	7.424749e-03	-4.391548e-02	-6.026888e-02	-4.493156e-02	-1.365723e-02	-3.616455e-02	5.212588e-02	-1.554983e-01	-6.273766e-02	-7.604043e-03	-1.963199e-03	6.760836e-02	2.212688e-02	-3.354456e-02	-3.405105e-02	-7.205595e-02	-1.214038e-03	-9.269793e-02	-5.338829e-03	1.718446e-01	5.483908e-03	1.445299e-03	1.731661e-03	-3.353393e-02	4.618379e-03	-5.163818e-02	-4.995805e-02	-3.355988e-02	-1.732315e-02	-2.562006e-02	2.083675e-02	-2.754200e-02	-2.381018e-02	4.071838e-03	3.128227e-02	3.363527e-02	6.992796e-03	3.619725e-02	3.817417e-02	4.961618e-02	7.183433e-02	1.254043e-02	4.520741e-02	4.731695e-02	8.303261e-03	6.067051e-02	2.324945e-02	2.473449e-02	7.895877e-03	8.077948e-03	1.489352e-02	5.866200e-03	6.176743e-03	6.545067e-03	6.809272e-03	1.062402e-02	1.112735e-02	1.139946e-02	8.866656e-03	9.162712e-03	-5.786121e-02	-5.560768e-02	-3.393565e-02	-3.318304e-02	-4.732608e-02	-3.203411e-02	-4.584573e-02	-3.587799e-02	-4.260006e-02	-4.069583e-02	-3.904544e-02	-3.760271e-02	-3.660908e-02	-3.507762e-02	-3.435943e-02	-3.386188e-02	-3.353957e-02	-3.334981e-02	-3.328706e-02	-3.328386e-02	-3.329532e-02	-3.459338e-02	-3.618105e-02	-3.697661e-02	-3.916242e-02	-4.034623e-02	-4.727610e-02	-4.841322e-02	2.632056e-02	2.815301e-02	2.948902e-02	1.292573e-02	1.331544e-02	-4.910945e-02	-4.787875e-02	-4.463764e-02	-4.058770e-02	-4.764630e-02	-4.914951e-02	-5.013110e-02	-5.000119e-02	-4.889125e-02	-4.949916e-02	-3.006277e-02	-2.376255e-02	-4.865619e-02	-4.681666e-02	1.587867e-02	1.814247e-02	1.943322e-02	9.501103e-03	9.847517e-03	-7.346989e-02	1.535138e-01	1.518547e-01	-1.011438e-01	6.049912e-03	-6.355814e-02	-4.250876e-02	8.476444e-02	2.704381e-03	4.123156e-03	1.052920e-01	7.351576e-02	-2.402858e-02	-1.382039e-02	-5.056802e-03	-5.164198e-02	2.101410e-02	-1.901379e-02	-8.341542e-02	3.499997e-02	4.919659e-03	-3.817417e-02	-2.684660e-02	3.145581e-03	1.033898e-02	4.121062e-02	1.621966e-02	1.325688e-02	5.037908e-02	5.260195e-02	5.233718e-03	5.511247e-03	-1.154155e-01	-5.746993e-02	-5.973154e-02	-4.852919e-02	-1.185550e-02	-3.062567e-02	1.865322e-02	6.459645e-03	-1.407947e-01	-1.417296e-01	-7.437423e-03	4.823468e-02	-5.002603e-02	4.123289e-02	5.503865e-02	-1.626005e-02	3.687209e-03	1.248304e-02	-1.720214e-03	6.567560e-03	6.658625e-03	-5.536004e-02	-1.047251e-02	4.628719e-02	5.764586e-02	1.988671e-02	-5.453343e-03	1.221139e-01	6.273686e-03	1.763593e-03	2.641555e-03	-3.065744e-02	4.531525e-03	-4.722265e-02	-3.068411e-02	-1.174105e-02	-3.066136e-02	-2.130747e-02	-1.876001e-02	3.020722e-02	3.266715e-02	3.719141e-02	3.950503e-02	6.202541e-02	1.088091e-02	4.278689e-02	4.446006e-02	9.964916e-03	2.520074e-02	2.672830e-02	2.223521e-02	6.724768e-03	6.951355e-03	7.037627e-03	5.742895e-03	9.042609e-03	9.501926e-03	7.191219e-03	7.405693e-03	1.738948e-02	-5.345096e-02	-3.065774e-02	-3.060996e-02	-3.969417e-02	-4.109331e-02	-3.902549e-02	-3.386739e-02	-3.720096e-02	-3.574632e-02	-3.467382e-02	-3.316370e-02	-3.247522e-02	-3.187868e-02	-3.143801e-02	-3.112542e-02	-3.090438e-02	-3.076856e-02	-1.845610e-02	-2.460744e-02	-2.765166e-02	-2.973776e-0