# vtk DataFile Version 3.0
vtk output
ASCII
DATASET UNSTRUCTURED_GRID
POINTS 5233 float
9.997500e-01	-3.632909e-05	0.0	9.990000e-01	-1.452618e-04	0.0	9.977600e-01	-3.252008e-04	0.0	9.960200e-01	-5.774943e-04	0.0	9.937800e-01	-9.022942e-04	0.0	9.910500e-01	-1.298763e-03	0.0	9.878400e-01	-1.766726e-03	0.0	9.841300e-01	-2.311194e-03	0.0	9.799500e-01	-2.930640e-03	0.0	9.752800e-01	-3.631444e-03	0.0	9.701500e-01	-4.412625e-03	0.0	9.645400e-01	-5.280292e-03	0.0	9.584700e-01	-6.233365e-03	0.0	9.519400e-01	-7.272227e-03	0.0	9.449600e-01	-8.393908e-03	0.0	9.375400e-01	-9.593773e-03	0.0	9.296900e-01	-1.086609e-02	0.0	9.214000e-01	-1.220804e-02	0.0	9.127000e-01	-1.361074e-02	0.0	9.035800e-01	-1.507272e-02	0.0	8.940600e-01	-1.658877e-02	0.0	8.841500e-01	-1.815610e-02	0.0	8.738500e-01	-1.977361e-02	0.0	8.631800e-01	-2.143627e-02	0.0	8.521600e-01	-2.313752e-02	0.0	8.407700e-01	-2.487471e-02	0.0	8.290500e-01	-2.663345e-02	0.0	8.170100e-01	-2.840162e-02	0.0	8.046400e-01	-3.016792e-02	0.0	7.919700e-01	-3.191393e-02	0.0	7.790100e-01	-3.362378e-02	0.0	7.657800e-01	-3.528073e-02	0.0	7.522800e-01	-3.687177e-02	0.0	7.385200e-01	-3.838440e-02	0.0	7.245300e-01	-3.980643e-02	0.0	7.103200e-01	-4.113073e-02	0.0	6.958900e-01	-4.235375e-02	0.0	6.812700e-01	-4.347212e-02	0.0	6.664700e-01	-4.448693e-02	0.0	6.515000e-01	-4.540154e-02	0.0	6.363800e-01	-4.622067e-02	0.0	6.211300e-01	-4.695082e-02	0.0	6.057600e-01	-4.760016e-02	0.0	5.902800e-01	-4.817747e-02	0.0	5.747100e-01	-4.869148e-02	0.0	5.590600e-01	-4.915119e-02	0.0	5.433600e-01	-4.956464e-02	0.0	5.276100e-01	-4.993996e-02	0.0	5.118400e-01	-5.028359e-02	0.0	4.960500e-01	-5.060149e-02	0.0	4.802700e-01	-5.089775e-02	0.0	4.645100e-01	-5.117554e-02	0.0	4.487800e-01	-5.143670e-02	0.0	4.331100e-01	-5.168146e-02	0.0	4.175000e-01	-5.190932e-02	0.0	4.019700e-01	-5.211839e-02	0.0	3.865400e-01	-5.230586e-02	0.0	3.712300e-01	-5.246816e-02	0.0	3.560400e-01	-5.260130e-02	0.0	3.409900e-01	-5.270061e-02	0.0	3.261100e-01	-5.276113e-02	0.0	3.114000e-01	-5.277790e-02	0.0	2.968700e-01	-5.274582e-02	0.0	2.825500e-01	-5.265996e-02	0.0	2.684500e-01	-5.251559e-02	0.0	2.545700e-01	-5.230801e-02	0.0	2.409400e-01	-5.203324e-02	0.0	2.275700e-01	-5.168749e-02	0.0	2.144700e-01	-5.126729e-02	0.0	2.016600e-01	-5.076993e-02	0.0	1.891400e-01	-5.019238e-02	0.0	1.769300e-01	-4.953284e-02	0.0	1.650400e-01	-4.878952e-02	0.0	1.534900e-01	-4.796177e-02	0.0	1.422900e-01	-4.704883e-02	0.0	1.314400e-01	-4.604934e-02	0.0	1.209500e-01	-4.496296e-02	0.0	1.108500e-01	-4.379208e-02	0.0	1.011300e-01	-4.253503e-02	0.0	9.181000e-02	-4.119389e-02	0.0	8.290000e-02	-3.976997e-02	0.0	7.440000e-02	-3.826304e-02	0.0	6.633000e-02	-3.667657e-02	0.0	5.869000e-02	-3.501058e-02	0.0	5.149000e-02	-3.326708e-02	0.0	4.474000e-02	-3.144844e-02	0.0	3.844000e-02	-2.955433e-02	0.0	3.260000e-02	-2.758711e-02	0.0	2.723000e-02	-2.554977e-02	0.0	2.232000e-02	-2.343708e-02	0.0	1.790000e-02	-2.126113e-02	0.0	1.395000e-02	-1.901092e-02	0.0	1.049000e-02	-1.669561e-02	0.0	7.520000e-03	-1.431461e-02	0.0	5.040000e-03	-1.186637e-02	0.0	3.050000e-03	-9.347302e-03	0.0	1.560000e-03	-6.769269e-03	0.0	5.600000e-04	-4.108233e-03	0.0	6.000000e-05	-1.363608e-03	0.0	0.000000e+00	0.000000e+00	0.0	6.000000e-05	1.350236e-03	0.0	5.600000e-04	4.050826e-03	0.0	1.560000e-03	6.663226e-03	0.0	3.050000e-03	9.195473e-03	0.0	5.040000e-03	1.167583e-02	0.0	7.520000e-03	1.409653e-02	0.0	1.049000e-02	1.646478e-02	0.0	1.395000e-02	1.878581e-02	0.0	1.790000e-02	2.106403e-02	0.0	2.232000e-02	2.329392e-02	0.0	2.723000e-02	2.549065e-02	0.0	3.260000e-02	2.764558e-02	0.0	3.844000e-02	2.976800e-02	0.0	4.474000e-02	3.185849e-02	0.0	5.149000e-02	3.391797e-02	0.0	5.869000e-02	3.595015e-02	0.0	6.633000e-02	3.795531e-02	0.0	7.440000e-02	3.993367e-02	0.0	8.290000e-02	4.188739e-02	0.0	9.181000e-02	4.381361e-02	0.0	1.011300e-01	4.571359e-02	0.0	1.108500e-01	4.758588e-02	0.0	1.209500e-01	4.942683e-02	0.0	1.314400e-01	5.123782e-02	0.0	1.422900e-01	5.301272e-02	0.0	1.534900e-01	5.474871e-02	0.0	1.650400e-01	5.644398e-02	0.0	1.769300e-01	5.809472e-02	0.0	1.891400e-01	5.969553e-02	0.0	2.016600e-01	6.124223e-02	0.0	2.144700e-01	6.272926e-02	0.0	2.275700e-01	6.415328e-02	0.0	2.409400e-01	6.550849e-02	0.0	2.545700e-01	6.679020e-02	0.0	2.684500e-01	6.799357e-02	0.0	2.825500e-01	6.911218e-02	0.0	2.968700e-01	7.014214e-02	0.0	3.114000e-01	7.107860e-02	0.0	3.261100e-01	7.191555e-02	0.0	3.409900e-01	7.264840e-02	0.0	3.560400e-01	7.327286e-02	0.0	3.712300e-01	7.378330e-02	0.0	3.865400e-01	7.417483e-02	0.0	4.019700e-01	7.444303e-02	0.0	4.175000e-01	7.458295e-02	0.0	4.331100e-01	7.458992e-02	0.0	4.487800e-01	7.445955e-02	0.0	4.645100e-01	7.418745e-02	0.0	4.802700e-01	7.376991e-02	0.0	4.960500e-01	7.320341e-02	0.0	5.118400e-01	7.248482e-02	0.0	5.276100e-01	7.161270e-02	0.0	5.433600e-01	7.058503e-02	0.0	5.590600e-01	6.940265e-02	0.0	5.747100e-01	6.806549e-02	0.0	5.902800e-01	6.657731e-02	0.0	6.057600e-01	6.494175e-02	0.0	6.211300e-01	6.316504e-02	0.0	6.363800e-01	6.125402e-02	0.0	6.515000e-01	5.921698e-02	0.0	6.664700e-01	5.706516e-02	0.0	6.812700e-01	5.481151e-02	0.0	6.958900e-01	5.246892e-02	0.0	7.103200e-01	5.005129e-02	0.0	7.245300e-01	4.757686e-02	0.0	7.385200e-01	4.505941e-02	0.0	7.522800e-01	4.251466e-02	0.0	7.657800e-01	3.996213e-02	0.0	7.790100e-01	3.741749e-02	0.0	7.919700e-01	3.489399e-02	0.0	8.046400e-01	3.240819e-02	0.0	8.170100e-01	2.997405e-02	0.0	8.290500e-01	2.760884e-02	0.0	8.407700e-01	2.532127e-02	0.0	8.521600e-01	2.312328e-02	0.0	8.631800e-01	2.103157e-02	0.0	8.738500e-01	1.905016e-02	0.0	8.841500e-01	1.718895e-02	0.0	8.940600e-01	1.545535e-02	0.0	9.035800e-01	1.385019e-02	0.0	9.127000e-01	1.237271e-02	0.0	9.214000e-01	1.102010e-02	0.0	9.296900e-01	9.781662e-03	0.0	9.375400e-01	8.650401e-03	0.0	9.449600e-01	7.612208e-03	0.0	9.519400e-01	6.656126e-03	0.0	9.584700e-01	5.772587e-03	0.0	9.645400e-01	4.954359e-03	0.0	9.701500e-01	4.195689e-03	0.0	9.752800e-01	3.496291e-03	0.0	9.799500e-01	2.852720e-03	0.0	9.841300e-01	2.270023e-03	0.0	9.878400e-01	1.747228e-03	0.0	9.910500e-01	1.290667e-03	0.0	9.937800e-01	8.994899e-04	0.0	9.960200e-01	5.767420e-04	0.0	9.977600e-01	3.250644e-04	0.0	9.990000e-01	1.452495e-04	0.0	9.997500e-01	3.632890e-05	0.0	1.000000e+00	0.000000e+00	0.0	1.984229e+01	2.506660e+00	0.0	1.937166e+01	4.973800e+00	0.0	1.859553e+01	7.362490e+00	0.0	1.752613e+01	9.635070e+00	0.0	1.618034e+01	1.175571e+01	0.0	1.457937e+01	1.369094e+01	0.0	1.274848e+01	1.541027e+01	0.0	1.071654e+01	1.688656e+01	0.0	8.515590e+00	1.809654e+01	0.0	6.180340e+00	1.902113e+01	0.0	3.747630e+00	1.964575e+01	0.0	1.255810e+00	1.996053e+01	0.0	-1.255810e+00	1.996053e+01	0.0	-3.747630e+00	1.964574e+01	0.0	-6.180340e+00	1.902113e+01	0.0	-8.515590e+00	1.809654e+01	0.0	-1.071654e+01	1.688656e+01	0.0	-1.274848e+01	1.541026e+01	0.0	-1.457937e+01	1.369094e+01	0.0	-1.618034e+01	1.175570e+01	0.0	-1.752613e+01	9.635070e+00	0.0	-1.859553e+01	7.362490e+00	0.0	-1.937166e+01	4.973800e+00	0.0	-1.984229e+01	2.506660e+00	0.0	-2.000000e+01	0.000000e+00	0.0	-1.984229e+01	-2.506670e+00	0.0	-1.937166e+01	-4.973800e+00	0.0	-1.859553e+01	-7.362490e+00	0.0	-1.752613e+01	-9.635080e+00	0.0	-1.618034e+01	-1.175571e+01	0.0	-1.457937e+01	-1.369094e+01	0.0	-1.274848e+01	-1.541027e+01	0.0	-1.071653e+01	-1.688656e+01	0.0	-8.515580e+00	-1.809654e+01	0.0	-6.180340e+00	-1.902113e+01	0.0	-3.747620e+00	-1.964575e+01	0.0	-1.255810e+00	-1.996053e+01	0.0	1.255810e+00	-1.996053e+01	0.0	3.747630e+00	-1.964574e+01	0.0	6.180340e+00	-1.902113e+01	0.0	8.515590e+00	-1.809654e+01	0.0	1.071654e+01	-1.688656e+01	0.0	1.274848e+01	-1.541026e+01	0.0	1.457937e+01	-1.369094e+01	0.0	1.618034e+01	-1.175570e+01	0.0	1.752614e+01	-9.635070e+00	0.0	1.859553e+01	-7.362490e+00	0.0	1.937166e+01	-4.973790e+00	0.0	1.984229e+01	-2.506660e+00	0.0	2.000000e+01	0.000000e+00	0.0	6.093892e-02	-4.285144e-02	0.0	6.600410e-01	-5.844939e-02	0.0	4.255297e-01	8.863687e-02	0.0	6.904536e-01	6.677179e-02	0.0	3.791252e-01	-6.656260e-02	0.0	9.994589e-01	-7.258723e-04	0.0	9.985402e-01	-1.320872e-03	0.0	7.738251e-01	-4.634860e-02	0.0	6.897588e-01	-5.606349e-02	0.0	-1.367138e-03	6.233161e-03	0.0	7.467650e-01	-4.997311e-02	0.0	5.838090e-01	8.122916e-02	0.0	9.927651e-01	-3.598793e-03	0.0	9.898616e-01	-4.480982e-03	0.0	5.994275e-01	7.958836e-02	0.0	7.187102e-01	-5.322760e-02	0.0	-1.548094e-03	7.305687e-04	0.0	9.864673e-01	-5.441292e-03	0.0	9.825916e-01	-6.470515e-03	0.0	-1.358171e-03	-6.336027e-03	0.0	6.449375e-01	-5.947833e-02	0.0	8.244939e-01	-3.842106e-02	0.0	7.997632e-01	-4.246746e-02	0.0	3.482204e-01	8.660152e-02	0.0	8.478910e-01	-3.434813e-02	0.0	2.468390e-01	7.862192e-02	0.0	8.698983e-01	-3.032503e-02	0.0	1.001408e-02	2.079824e-02	0.0	8.904116e-01	-2.642047e-02	0.0	7.722818e-02	-4.682321e-02	0.0	9.093595e-01	-2.267674e-02	0.0	-1.865007e-03	-3.138557e-03	0.0	9.422484e-01	-1.580904e-02	0.0	9.266631e-01	-1.912583e-02	0.0	1.806769e-02	-2.637803e-02	0.0	4.256782e-01	-6.623083e-02	0.0	8.590773e-01	-3.232303e-02	0.0	9.560748e-01	-1.276843e-02	0.0	9.782290e-01	-7.589010e-03	0.0	9.680882e-01	-1.002215e-02	0.0	1.584746e-01	-5.900398e-02	0.0	9.000881e-01	-2.452666e-02	0.0	7.604299e-01	-4.820093e-02	0.0	9.971132e-01	-2.058079e-03	0.0	5.988429e-01	-6.197001e-02	0.0	4.413590e-01	-6.604490e-02	0.0	5.361230e-01	-6.418097e-02	0.0	4.728882e-01	-6.557080e-02	0.0	5.045102e-01	-6.495629e-02	0.0	4.886866e-01	-6.528085e-02	0.0	1.251652e-01	-5.514410e-02	0.0	2.799454e-02	-3.148915e-02	0.0	3.945492e-01	-6.649285e-02	0.0	4.640172e-02	-3.855324e-02	0.0	4.100682e-01	-6.638196e-02	0.0	3.187978e-01	-6.636792e-02	0.0	3.486567e-01	-6.657206e-02	0.0	3.367005e-02	-3.391128e-02	0.0	2.896281e-01	-6.592628e-02	0.0	9.346743e-01	-1.743395e-02	0.0	1.470184e-01	-5.780948e-02	0.0	1.948400e-01	-6.200962e-02	0.0	8.600599e-02	-4.867547e-02	0.0	1.048018e-01	-5.210645e-02	0.0	5.676108e-01	-6.321237e-02	0.0	1.702734e-01	-6.010386e-02	0.0	6.143295e-01	-6.122907e-02	0.0	8.803501e-01	-2.835590e-02	0.0	2.280418e-02	-2.897635e-02	0.0	9.951875e-01	-2.803889e-03	0.0	6.796488e-03	-1.820110e-02	0.0	1.798544e-02	2.626178e-02	0.0	9.182203e-01	-2.087471e-02	0.0	9.49388
[...]
POINT_DATA 5233

SCALARS Conservative_1 float 1
LOOKUP_TABLE default
4.298423e-01	2.175700e-01	1.774183e-01	1.479028e-01	1.286431e-01	1.139462e-01	1.022551e-01	9.277955e-02	8.500964e-02	7.857061e-02	7.317983e-02	6.864084e-02	6.477075e-02	6.146313e-02	5.860757e-02	5.612963e-02	5.396459e-02	5.194286e-02	5.004250e-02	4.831075e-02	4.691226e-02	4.574042e-02	4.478120e-02	4.400432e-02	4.332799e-02	4.281640e-02	4.235293e-02	4.201845e-02	4.168708e-02	4.140160e-02	4.113147e-02	4.077959e-02	4.046187e-02	3.998350e-02	3.950832e-02	3.887966e-02	3.824693e-02	3.747264e-02	3.671545e-02	3.584307e-02	3.501352e-02	3.410154e-02	3.325849e-02	3.236162e-02	3.154989e-02	3.071482e-02	2.996301e-02	2.922071e-02	2.854424e-02	2.789989e-02	2.731106e-02	2.675474e-02	2.622822e-02	2.576066e-02	2.529770e-02	2.489955e-02	2.449692e-02	2.414567e-02	2.378248e-02	2.346039e-02	2.311896e-02	2.281177e-02	2.247422e-02	2.216343e-02	2.181540e-02	2.148509e-02	2.111220e-02	2.074891e-02	2.034279e-02	1.992704e-02	1.948053e-02	1.900148e-02	1.850337e-02	1.795856e-02	1.738736e-02	1.677999e-02	1.612224e-02	1.543179e-02	1.468795e-02	1.390140e-02	1.305677e-02	1.216022e-02	1.120234e-02	1.018183e-02	9.090478e-03	7.929449e-03	6.687917e-03	5.366126e-03	3.966599e-03	2.478657e-03	9.453812e-04	-4.685386e-04	-2.255505e-03	-4.663241e-03	-2.193340e-03	6.074064e-03	8.028111e-03	2.577866e-03	-4.554492e-03	-1.113625e-02	-1.725707e-02	-3.057882e-02	-5.080240e-02	-6.730520e-02	-8.009668e-02	-1.002147e-01	-1.274255e-01	-1.485708e-01	-1.587501e-01	-1.626527e-01	-1.645987e-01	-1.656162e-01	-1.655133e-01	-1.638974e-01	-1.610142e-01	-1.572414e-01	-1.530580e-01	-1.488895e-01	-1.451363e-01	-1.419549e-01	-1.393693e-01	-1.374837e-01	-1.363440e-01	-1.358711e-01	-1.356990e-01	-1.355252e-01	-1.352719e-01	-1.349981e-01	-1.348071e-01	-1.347508e-01	-1.346269e-01	-1.344221e-01	-1.339338e-01	-1.331774e-01	-1.322924e-01	-1.313818e-01	-1.306874e-01	-1.298313e-01	-1.283677e-01	-1.255810e-01	-1.214626e-01	-1.150797e-01	-1.046468e-01	-9.123617e-02	-8.074004e-02	-7.704652e-02	-7.835150e-02	-8.083026e-02	-8.254727e-02	-8.355397e-02	-8.401096e-02	-8.413843e-02	-8.373944e-02	-8.296831e-02	-8.192298e-02	-8.056943e-02	-7.917319e-02	-7.754560e-02	-7.586057e-02	-7.412603e-02	-7.230248e-02	-7.056086e-02	-6.874400e-02	-6.707451e-02	-6.536136e-02	-6.383255e-02	-6.229431e-02	-6.096369e-02	-5.964479e-02	-5.854618e-02	-5.747551e-02	-5.664128e-02	-5.582651e-02	-5.526975e-02	-5.482027e-02	-5.456338e-02	-5.453451e-02	-5.471865e-02	-5.524236e-02	-5.602807e-02	-5.733603e-02	-5.894962e-02	-6.083401e-02	-6.291324e-02	-6.539436e-02	-6.820513e-02	-7.143932e-02	-7.505050e-02	-7.913677e-02	-8.374810e-02	-8.904199e-02	-9.516843e-02	-1.023884e-01	-1.109752e-01	-1.213541e-01	-1.340350e-01	-1.533329e-01	-1.700865e-01	-3.244737e-01	4.006980e-02	-1.094772e-04	-1.199997e-04	-1.298971e-04	-1.383588e-04	-1.487374e-04	-1.566452e-04	-1.654559e-04	-1.684928e-04	-1.628130e-04	-1.613663e-04	-1.673369e-04	-1.692747e-04	-1.722741e-04	-1.646060e-04	-1.462968e-04	-1.377365e-04	-1.194526e-04	-1.062195e-04	-9.160034e-05	-7.260361e-05	-4.622737e-05	-3.013975e-05	2.858952e-05	1.673022e-04	1.193813e-04	1.429766e-04	2.071981e-04	2.156534e-04	1.324130e-04	1.643152e-04	1.917650e-04	2.062534e-04	2.178872e-04	2.200684e-04	2.195348e-04	2.086867e-04	1.751684e-04	1.453940e-04	8.865164e-05	6.547308e-05	5.417145e-05	3.376352e-05	1.324931e-05	-8.006233e-06	-2.774767e-05	-4.516721e-05	-6.013238e-05	-7.449209e-05	-8.708807e-05	-9.891048e-05	9.794428e-03	3.209169e-02	-6.664836e-02	-6.029900e-02	2.148490e-02	3.341950e-01	2.392680e-01	3.721360e-02	3.359521e-02	-3.124295e-02	3.615506e-02	-6.855757e-02	1.267104e-01	1.108257e-01	-6.750975e-02	3.496388e-02	-1.312829e-02	9.882211e-02	8.944936e-02	4.075893e-03	3.132887e-02	3.932316e-02	3.821966e-02	-9.725620e-02	4.068947e-02	-1.101377e-01	4.248552e-02	-1.088213e-01	4.494846e-02	1.148645e-02	4.839592e-02	-1.705978e-03	5.674217e-02	5.228131e-02	1.664252e-03	2.254587e-02	4.151235e-02	6.260023e-02	8.190525e-02	7.059427e-02	1.628159e-02	4.654797e-02	3.672399e-02	1.816096e-01	2.896745e-02	2.296245e-02	2.614344e-02	2.387439e-02	2.493918e-02	2.439450e-02	1.479047e-02	4.349662e-03	2.181055e-02	7.837804e-03	2.217689e-02	2.028822e-02	2.086435e-02	5.589186e-03	1.972515e-02	5.439213e-02	1.582386e-02	1.750813e-02	1.224307e-02	1.360625e-02	2.749142e-02	1.672166e-02	2.975769e-02	4.360882e-02	3.044619e-03	1.487885e-01	-2.885258e-03	-1.335120e-01	5.033202e-02	5.945060e-02	7.572325e-02	-4.519697e-02	3.994567e-02	1.884167e-02	2.681046e-02	3.559822e-02	3.772385e-02	1.422100e-02	1.820866e-02	2.823179e-02	3.287571e-02	8.848958e-03	-3.584876e-03	3.253555e-04	2.115891e-02	1.712541e-02	4.512964e-01	1.853963e-02	1.295137e-02	1.999660e-02	1.915130e-02	2.339866e-02	3.431979e-02	-1.953597e-02	6.297453e-03	-7.071672e-02	-8.024117e-03	-1.409850e-01	-1.389825e-01	-1.429285e-01	-1.172816e-01	-6.761603e-02	-1.622762e-01	-7.090645e-02	-6.959242e-02	-8.081772e-02	-7.247958e-02	-5.342731e-02	-7.032390e-02	-6.740475e-02	-8.185743e-02	-5.921689e-02	-5.593931e-02	-1.278799e-01	-8.598381e-02	-6.904565e-02	-6.341379e-02	-1.214530e-01	-1.355754e-01	-1.062804e-01	-1.089170e-01	-1.138249e-01	-1.033636e-01	-6.853586e-02	-7.241233e-02	-1.148813e-01	-1.161020e-01	-6.522366e-02	-1.128578e-01	-1.118782e-01	-6.275566e-02	-6.942578e-02	-5.596902e-02	-5.800241e-02	-5.299269e-02	-5.428540e-02	-5.183747e-02	-5.217478e-02	-5.453846e-02	-5.215930e-02	-6.605160e-02	-5.752524e-02	-7.636262e-02	-5.191321e-02	-5.266024e-02	-5.249173e-02	-5.190909e-02	-5.505445e-02	-5.356195e-02	-5.909685e-02	-5.692017e-02	-6.398256e-02	-6.149139e-02	-7.019206e-02	-6.641480e-02	-1.124372e-01	-1.111280e-01	-1.143749e-01	-1.133168e-01	-1.415888e-01	-1.153865e-01	-1.252729e-01	-1.426847e-01	1.787285e-02	-6.507376e-02	6.626950e-02	3.873627e-02	2.056390e-02	2.552759e-02	-5.498923e-02	-1.380202e-01	-8.498415e-02	-1.243971e-01	-1.317398e-01	-1.076168e-01	-1.190586e-01	-9.211654e-02	-9.952359e-02	-1.049603e-01	-1.088462e-01	-1.209915e-01	-1.010600e-01	-9.098170e-02	-6.118865e-02	-3.806021e-01	-2.055389e-01	-2.740205e-01	3.052317e-02	6.751391e-03	-1.376852e-01	-7.079152e-02	1.347401e-03	-9.348649e-04	1.066995e-02	1.532626e-02	1.943249e-02	-1.112552e-01	-2.897296e-02	-1.976685e-02	1.702506e-02	2.991991e-02	4.725176e-02	-1.225040e-03	-5.697062e-02	2.923964e-02	3.396627e-02	1.050252e-01	1.777648e-02	3.867745e-02	3.685736e-02	1.131318e-02	3.834221e-03	1.575679e-02	1.132574e-03	6.302267e-02	1.415985e-02	3.066538e-02	2.778885e-02	2.021391e-02	1.070166e-02	1.885914e-02	4.366910e-02	3.462972e-02	-7.330517e-02	-1.119645e-01	-5.270718e-02	-4.834135e-02	-9.937529e-02	-5.193258e-02	-9.346579e-02	-4.976744e-02	-1.034134e-01	-7.293550e-02	-5.855448e-02	-6.525295e-02	-5.059948e-02	-1.149182e-01	-6.841186e-02	-8.719543e-02	-8.808808e-02	-7.735321e-02	-8.924644e-02	-1.017148e-01	2.847709e-02	1.546273e-02	-9.177760e-02	-9.496364e-02	-1.199446e-01	-7.628635e-02	-1.300556e-01	-5.158578e-02	1.450247e-02	-1.227815e-01	-1.754627e-01	-1.513695e-01	-5.544295e-02	-3.840286e-02	-2.859534e-03	-5.740413e-03	-9.974537e-03	2.362392e-03	1.498178e-01	9.306908e-03	1.943908e-01	1.380445e-01	-5.539057e-02	2.308224e-02	9.389030e-02	4.090537e-02	-5.641247e-02	1.192102e-01	-4.907039e-04	1.983107e-02	-5.349919e-02	3.769323e-02	-8.403559e-02	3.971963e-02	4.221223e-02	1.003150e-02	4.535310e-02	4.932797e-02	5.644841e-02	4.680936e-03	5.947928e-02	6.716351e-02	8.512522e-02	1.334212e-02	3.262465e-02	3.332933e-02	1.639840e-01	2.060882e-02	2.103059e-02	2.150935e-02	3.550716e-03	1.915083e-02	1.950152e-02	1.801473e-02	6.740018e-03	5.146542e-02	5.379830e-02	1.376451e-02	1.188505e-02	2.370196e-02	2.562137e-02	7.206988e-02	7.794054e-02	3.130824e-02	3.201698e-02	1.240344e-02	1.290301e-02	2.429301e-02	2.498016e-02	7.661357e-03	8.518992e-03	5.370246e-05	1.829395e-02	1.855553e-02	1.485337e-02	1.516588e-02	1.601428e-02	1.628722e-02	1.728197e-02	1.751221e-02	1.653104e-02	-1.361023e-02	-1.395305e-03	-1.212074e-01	-9.437006e-02	-5.842355e-02	-5.835455e-02	-5.813452e-02	-5.784990e-02	-8.123425e-02	-7.207100e-02	-5.612271e-02	-5.759788e-02	-5.703433e-02	-5.368109e-02	-5.436504e-02	-6.246445e-02	-1.147179e-01	-1.176633e-01	-8.686349e-02	-8.549049e-02	-9.415950e-02	-9.606164e-02	-9.751531e-02	-4.816858e-02	-4.950023e-02	-5.007678e-02	-4.844270e-02	-4.816950e-02	-5.284799e-02	-4.916440e-02	-4.867185e-02	-4.802706e-02	-4.810340e-02	-4.868217e-02	-4.910482e-02	-5.060745e-02	-5.129741e-02	-5.340843e-02	-5.420997e-02	-5.763036e-02	-5.811949e-02	-5.495223e-02	-5.567501e-02	-9.027261e-02	-9.111792e-02	-9.196744e-02	-9.272396e-02	-1.043820e-01	-1.211293e-01	-1.196367e-01	3.534347e-02	3.604347e-02	2.199911e-02	2.254513e-02	-4.520226e-02	-1.167178e-01	-1.044717e-01	-1.076995e-01	-8.024928e-02	-8.229607e-02	-5.883905e-02	-6.633424e-02	-6.009051e-02	-5.795723e-02	2.635569e-02	2.702918e-02	5.747164e-03	3.276373e-03	1.679643e-02	1.297729e-04	1.647203e-02	1.473203e-02	3.122204e-02	1.989493e-02	4.566629e-02	-9.986215e-02	-9.182336e-02	-6.656681e-02	-3.877453e-02	-1.086137e-01	-2.243247e-01	-2.042132e-01	1.494188e-01	7.600117e-03	2.994173e-03	-1.204543e-02	1.027936e-02	4.781627e-02	1.025874e-01	-4.777364e-02	2.528015e-01	-1.391018e-03	2.693848e-02	7.465802e-04	2.763012e-02	1.946629e-03	3.780832e-02	-1.519467e-05	1.543222e-02	3.665049e-02	2.620154e-02	1.134733e-01	9.191539e-04	-7.936784e-02	-4.855250e-02	-6.055742e-02	-4.542746e-02	-1.205734e-01	-4.848124e-02	-6.516607e-02	-5.158403e-02	-7.473936e-02	-9.459234e-02	-2.233377e-01	2.580979e-03	-2.570533e-02	-8.547930e-02	-1.859467e-02	6.237915e-02	9.817952e-03	-8.496384e-03	1.243685e-02	1.776815e-02	4.008140e-03	-6.217461e-02	-4.465870e-02	-4.370453e-02	-4.504596e-02	-8.510786e-02	-6.338272e-02	-4.809287e-02	-4.711060e-02	-5.696376e-02	-6.349781e-02	-6.858975e-02	-8.308510e-02	2.479047e-02	2.550977e-02	1.342040e-02	-7.545928e-02	-7.568100e-02	-7.442621e-02	-1.381064e-01	-4.846744e-02	-3.243702e-02	-1.865218e-03	-4.505841e-03	4.963745e-03	2.255125e-01	2.535483e-01	6.666670e-02	9.274751e-02	-4.731461e-02	1.741900e-02	-4.502530e-02	3.462173e-02	3.556362e-02	3.906431e-02	4.045269e-02	8.724185e-03	9.295901e-03	4.195552e-02	4.373419e-02	5.545905e-02	5.866867e-02	8.453683e-02	2.972168e-02	3.054630e-02	1.282940e-01	1.817468e-02	1.853080e-02	1.674210e-02	1.708866e-02	5.839288e-03	5.014025e-02	5.262458e-02	1.181797e-02	1.213191e-02	2.043840e-02	2.096561e-02	7.165431e-02	7.758328e-02	2.839130e-02	2.910189e-02	1.071129e-02	1.111584e-02	1.149746e-02	2.156383e-02	2.215072e-02	6.658280e-03	7.412827e-03	8.112591e-03	1.564903e-02	1.593111e-02	1.616741e-02	1.269294e-02	1.294962e-02	1.320848e-02	1.367091e-02	1.386136e-02	1.497513e-02	1.517557e-02	1.410459e-02	-9.933824e-02	-4.850967e-02	-4.851220e-02	-7.023424e-02	-4.856747e-02	-4.843473e-02	-4.756985e-02	-4.121647e-02	-5.214721e-02	-9.679893e-02	-9.837933e-02	-6.643039e-02	-6.742316e-02	-7.703305e-02	-7.873864e-02	-8.069998e-02	-4.395607e-02	-5.060084e-02	-4.918529e-02	-4.634182e-02	-4.561397e-02	-4.508168e-02	-4.416157e-02	-4.405107e-02	-4.387227e-02	-4.372032e-02	-4.371298e-02	-4.383500e-02	-4.419185e-02	-4.441687e-02	-4.473546e-02	-4.579634e-02	-4.819522e-02	-4.837492e-02	-4.621626e-02	-4.658558e-02	-4.704345e-02	-6.973837e-02	-7.087987e-02	-7.201575e-02	-7.304128e-02	-7.394680e-02	-9.951516e-02	-9.869048e-02	3.205389e-02	3.287375e-02	3.368306e-02	1.893585e-02	1.944601e-02	-9.647517e-02	-9.230011e-02	-8.574953e-02	-8.872871e-02	-9.178938e-02	-6.083398e-02	-3.830210e-02	-3.973063e-02	-4.522811e-02	-5.812017e-02	-5.589951e-02	-5.397182e-02	2.280060e-02	2.343342e-02	2.412157e-02	1.430331e-02	1.454253e-02	-3.847981e-04	9.225536e-03	-1.056550e-01	-7.540515e-02	1.806809e-02	-1.259717e-02	1.569557e-01	4.399050e-02	4.621260e-02	5.199646e-03	-9.179471e-02	-4.154866e-02	8.161012e-04	-6.149388e-02	7.579485e-05	-6.090341e-02	-9.759072e-02	-2.355483e-02	-4.055341e-02	-2.883202e-02	-8.756253e-02	1.005406e-01	2.943544e-02	1.083500e-02	3.598384e-03	1.448211e-02	8.902119e-03	1.541271e-02	1.276284e-02	-8.023991e-02	-4.141910e-02	-5.820969e-02	-5.584364e-02	-4.003168e-02	-5.936244e-02	-5.033781e-02	8.725892e-02	-7.782848e-02	3.497073e-02	-1.435807e-01	-8.571068e-02	1.115711e-01	6.459572e-02	2.741076e-03	2.419634e-02	-8.288206e-04	2.468767e-02	2.568082e-02	1.841832e-03	9.473745e-02	1.035482e-03	-4.153191e-02	-4.204081e-02	-4.082577e-02	-1.806305e-02	-5.198256e-02	-3.996495e-02	-4.476106e-02	-3.511906e-02	-4.562271e-02	-4.845090e-02	2.280963e-02	2.327159e-02	-7.106235e-02	-4.229638e-02	-3.450353e-02	-2.286349e-04	-3.336935e-03	4.446286e-03	6.058616e-02	8.043749e-02	-4.101057e-02	3.286021e-02	3.380670e-02	3.612785e-02	3.742834e-02	8.100004e-03	8.520076e-03	3.876793e-02	4.032890e-02	4.214291e-02	5.387846e-02	5.702519e-02	2.783970e-02	2.842254e-02	1.019876e-01	1.583066e-02	1.625058e-02	1.471523e-02	1.510646e-02	4.857389e-02	5.105336e-02	1.036651e-02	1.053523e-02	1.837336e-02	6.919146e-02	7.448369e-02	2.625419e-02	2.690214e-02	9.552093e-03	9.806353e-03	1.015109e-02	1.909860e-02	1.945385e-02	5.887996e-03	6.528309e-03	7.131633e-03	7.653833e-03	1.339783e-02	1.365882e-02	1.389359e-02	1.418640e-02	1.097368e-02	1.121943e-02	1.137908e-02	1.160040e-02	1.175655e-02	1.318785e-02	1.295081e-02	1.197098e-02	-4.168973e-02	-6.726023e-02	-6.389836e-02	-4.167951e-02	-4.158906e-02	-4.122138e-02	-3.995025e-02	-3.722586e-02	-7.853586e-02	-7.893624e-02	-5.112434e-02	-5.208102e-02	-6.067201e-02	-6.254060e-02	-6.448332e-02	-6.683303e-02	-4.824542e-02	-4.690343e-02	-4.570901e-02	-4.385832e-02	-4.311353e-02	-4.238988e-02	-4.193763e-02	-4.085295e-02	-4.070868e-02	-4.058741e-02	-4.019333e-02	-3.975768e-02	-4.004729e-02	-3.967278e-02	-4.007584e-02	-3.974918e-02	-4.025360e-02	-4.150157e-02	-4.203712e-02	-4.028227e-02	-4.094241e-02	-4.068364e-02	-4.134443e-02	-5.287967e-02	-5.402739e-02	-5.508803e-02	-5.638322e-02	-5.739884e-02	-5.832662e-02	-7.924303e-02	-7.926737e-02	3.012418e-02	3.092642e-02	3.188987e-02	1.651694e-02	1.715268e-02	1.741655e-02	-7.814210e-02	-7.491077e-02	-6.929690e-02	-6.944209e-02	-7.222687e-02	-7.473691e-02	-7.660893e-02	-3.266347e-02	-2.802378e-02	-2.683328e-02	-2.964505e-02	-4.986209e-02	-5.363251e-02	-5.174727e-02	2.024161e-02	2.064132e-02	2.148270e-02	2.191904e-02	1.214609e-02	1.236835e-02	1.253979e-02	2.700156e-03	-9.258516e-02	5.794724e-02	-1.540952e-01	1.987426e-03	2.351457e-02	8.288165e-03	1.240589e-03	-6.690098e-02	2.510814e-04	4.789633e-03	9.436340e-03	-4.851900e-02	-4.300009e-02	-2.589735e-02	-1.294654e-02	-8.406537e-03	-6.985797e-03	-8.615050e-03	1.100383e-05	9.639012e-02	-2.327696e-02	6.148516e-02	7.959116e-02	4.471204e-02	2.745871e-02	1.284179e-02	-8.228300e-02	-4.666026e-02	-5.143172e-02	-3.713810e-02	-3.705387e-02	-3.640696e-02	-3.707693e-02	-3.667358e-02	1.616241e-02	-1.972248e-02	-7.838452e-02	8.038958e-03	-1.644202e-01	-7.038361e-02	-6.306298e-03	1.709093e-01	1.826927e-01	4.290302e-02	5.342911e-03	-1.305057e-03	-4.965791e-02	4.987654e-04	-5.566565e-02	-2.169835e-02	-3.214468e-02	3.438677e-02	3.429857e-03	1.152013e-02	1.117315e-02	-7.404983e-02	-3.650761e-02	-5.349704e-02	7.422748e-02	2.202319e-02	-1.742901e-02	-3.034684e-02	-3.383686e-02	-3.871220e-02	2.066016e-02	-3.633153e-02	-3.058943e-02	-3.319559e-03	4.124516e-03	3.155897e-02	3.273157e-02	3.371367e-02	3.508464e-02	7.763969e-03	7.484361e-03	3.618100e-02	3.771158e-02	3.901544e-02	4.071524e-02	5.184890e-02	5.475545e-02	2.579334e-02	8.430544e-02	1.398046e-02	1.424738e-02	1.328378e-02	1.344956e-02	4.686531e-02	4.921395e-02	9.053799e-03	9.362840e-03	6.540699e-02	6.968223e-02	2.445531e-02	8.442152e-03	8.798378e-03	9.004159e-03	1.712469e-02	5.846942e-03	6.345330e-03	6.772581e-03	7.172821e-03	1.158420e-02	1.195222e-02	1.203512e-02	1.245364e-02	1.263238e-02	9.722437e-03	9.759780e-03	1.005238e-02	1.008292e-02	1.038161e-02	-6.369228e-02	-6.075854e-02	-5.810727e-02	-3.717665e-02	-3.651560e-02	-3.678915e-02	-3.580282e-02	-3.506489e-02	-6.144710e-02	-6.114828e-02	-3.933717e-02	-4.132164e-02	-5.110096e-02	-5.223153e-02	-5.430607e-02	-4.504557e-02	-4.408213e-02	-4.292146e-02	-4.224033e-02	-4.121309e-02	-4.063446e-02	-3.981301e-02	-3.910734e-02	-3.815244e-02	-3.777972e-02	-3.667547e-02	-3.644600e-02	-3.636830e-02	-3.655844e-02	-3.669986e-02	-4.102362e-02	-4.260968e-02	-4.256081e-02	-4.464744e-02	-4.487667e-02	-4.584457e-02	-4.712183e-02	-6.144865e-02	-6.219289e-02	2.861850e-02	2.972824e-02	3.056015e-02	1.457582e-02	1.528630e-02	-6.215096e-02	-5.990132e-02	-5.544432e-02	-5.664237e-02	-5.895480e-02	-6.078932e-02	-6.161055e-02	-6.158793e-02	-3.198518e-02	-2.733978e-02	-2.259907e-02	-1.855645e-02	-4.960256e-02	-4.806883e-02	1.820958e-02	1.939014e-02	1.042886e-02	1.075479e-02	1.079559e-02	1.112007e-02	1.850034e-01	-1.670330e-01	2.234052e-03	-9.362334e-03	8.253078e-02	5.723636e-02	-6.742912e-02	-1.679570e-02	-5.269983e-02	9.471069e-02	6.342142e-02	-4.073677e-03	5.025798e-03	2.867271e-03	-1.391793e-02	-7.959197e-02	-3.094216e-02	-2.002370e-02	3.446076e-03	5.439235e-02	1.388203e-02	-6.442482e-02	1.008820e-02	4.295328e-02	4.051164e-02	1.679144e-02	7.413381e-03	8.465771e-03	4.822110e-04	1.175270e-02	7.100501e-03	7.301148e-03	-4.385174e-02	-5.934026e-02	-4.425469e-02	-1.348382e-02	-3.540876e-02	5.170532e-02	-1.525895e-01	-6.176596e-02	-7.514260e-03	-1.954884e-03	6.707002e-02	2.192367e-02	-3.273263e-02	-3.310372e-02	-7.092756e-02	-1.059823e-03	-9.118639e-02	-5.299778e-03	1.706954e-01	5.393601e-03	1.421802e-03	1.702139e-03	-3.283261e-02	4.544485e-03	-5.085650e-02	-4.920552e-02	-3.281741e-02	-1.883939e-02	-2.754206e-02	2.064282e-02	-2.689854e-02	-2.329620e-02	4.008096e-03	3.100951e-02	3.334442e-02	6.874909e-03	3.588667e-02	3.784979e-02	4.921331e-02	7.125931e-02	1.239654e-02	4.483544e-02	4.693011e-02	8.173655e-03	6.018718e-02	2.303873e-02	2.451295e-02	7.768253e-03	7.948621e-03	1.473627e-02	5.768623e-03	6.072850e-03	6.435866e-03	6.694784e-03	1.048990e-02	1.099077e-02	1.126157e-02	8.736160e-03	9.032137e-03	-5.697370e-02	-5.475854e-02	-3.274371e-02	-3.117097e-02	-4.703652e-02	-3.244894e-02	-4.585929e-02	-3.530991e-02	-4.195395e-02	-4.007490e-02	-3.844473e-02	-3.701831e-02	-3.603442e-02	-3.451454e-02	-3.379793e-02	-3.329695e-02	-3.296609e-02	-3.276244e-02	-3.267922e-02	-3.264907e-02	-3.262999e-02	-3.426659e-02	-3.593305e-02	-3.689442e-02	-3.907007e-02	-4.029883e-02	-4.715802e-02	-4.840445e-02	2.608679e-02	2.790495e-02	2.922997e-02	1.277964e-02	1.316759e-02	-4.904816e-02	-4.760159e-02	-4.410251e-02	-3.988768e-02	-4.765559e-02	-4.909499e-02	-4.996817e-02	-4.971164e-02	-4.852086e-02	-4.911552e-02	-2.617653e-02	-1.856321e-02	-4.792521e-02	-4.611146e-02	1.571537e-02	1.796537e-02	1.924820e-02	9.369978e-03	9.715591e-03	-7.232058e-02	1.524341e-01	1.507822e-01	-9.945991e-02	5.939460e-03	-6.258192e-02	-4.178032e-02	8.409167e-02	2.654975e-03	4.052451e-03	1.044970e-01	7.292065e-02	-2.345779e-02	-1.361986e-02	-5.044965e-03	-5.083817e-02	2.082084e-02	-1.446794e-02	-8.208378e-02	3.470374e-02	4.832218e-03	-3.786392e-02	-2.622643e-02	3.094004e-03	1.020986e-02	4.087115e-02	1.605567e-02	1.311020e-02	4.996956e-02	5.217308e-02	5.139565e-03	5.411262e-03	-1.134450e-01	-5.658124e-02	-5.881279e-02	-4.777463e-02	-1.287573e-02	-3.000881e-02	1.847499e-02	6.342928e-03	-1.382980e-01	-1.391898e-01	-7.372839e-03	4.784281e-02	-4.924768e-02	4.091302e-02	5.458790e-02	-1.596597e-02	3.625273e-03	1.234105e-02	-1.690501e-03	6.449153e-03	6.539707e-03	-5.450170e-02	-1.036857e-02	4.591090e-02	5.716929e-02	1.970077e-02	-5.434059e-03	1.211564e-01	6.158926e-03	1.758331e-03	2.595410e-03	-2.995962e-02	4.452362e-03	-4.649013e-02	-3.003148e-02	-9.459429e-03	-3.007188e-02	-2.081915e-02	-1.836877e-02	2.994757e-02	3.238864e-02	3.688006e-02	3.917728e-02	6.150931e-02	1.074891e-02	4.243655e-02	4.409761e-02	9.837989e-03	2.497848e-02	2.649427e-02	2.203386e-02	6.606513e-03	6.832086e-03	6.919220e-03	5.637510e-03	8.920827e-03	9.378088e-03	7.073641e-03	7.288686e-03	1.721870e-02	-5.261994e-02	-2.988216e-02	-2.969829e-02	-3.995266e-02	-4.045309e-02	-3.841863e-02	-3.333894e-02	-3.662344e-02	-3.519145e-02	-3.413492e-02	-3.264245e-02	-3.195856e-02	-3.136250e-02	-3.091702e-02	-3.059479e-02	-3.035933e-02	-3.020324e-02	-2.015939e-02	-2.522022e-02	-2.758275e-02	-2.975955e-0