# vtk DataFile Version 3.0
vtk output
ASCII
DATASET UNSTRUCTURED_GRID
POINTS 5233 float
9.997500e-01	-3.632909e-05	0.0	9.990000e-01	-1.452618e-04	0.0	9.977600e-01	-3.252008e-04	0.0	9.960200e-01	-5.774943e-04	0.0	9.937800e-01	-9.022942e-04	0.0	9.910500e-01	-1.298763e-03	0.0	9.878400e-01	-1.766726e-03	0.0	9.841300e-01	-2.311194e-03	0.0	9.799500e-01	-2.930640e-03	0.0	9.752800e-01	-3.631444e-03	0.0	9.701500e-01	-4.412625e-03	0.0	9.645400e-01	-5.280292e-03	0.0	9.584700e-01	-6.233365e-03	0.0	9.519400e-01	-7.272227e-03	0.0	9.449600e-01	-8.393908e-03	0.0	9.375400e-01	-9.593773e-03	0.0	9.296900e-01	-1.086609e-02	0.0	9.214000e-01	-1.220804e-02	0.0	9.127000e-01	-1.361074e-02	0.0	9.035800e-01	-1.507272e-02	0.0	8.940600e-01	-1.658877e-02	0.0	8.841500e-01	-1.815610e-02	0.0	8.738500e-01	-1.977361e-02	0.0	8.631800e-01	-2.143627e-02	0.0	8.521600e-01	-2.313752e-02	0.0	8.407700e-01	-2.487471e-02	0.0	8.290500e-01	-2.663345e-02	0.0	8.170100e-01	-2.840162e-02	0.0	8.046400e-01	-3.016792e-02	0.0	7.919700e-01	-3.191393e-02	0.0	7.790100e-01	-3.362378e-02	0.0	7.657800e-01	-3.528073e-02	0.0	7.522800e-01	-3.687177e-02	0.0	7.385200e-01	-3.838440e-02	0.0	7.245300e-01	-3.980643e-02	0.0	7.103200e-01	-4.113073e-02	0.0	6.958900e-01	-4.235375e-02	0.0	6.812700e-01	-4.347212e-02	0.0	6.664700e-01	-4.448693e-02	0.0	6.515000e-01	-4.540154e-02	0.0	6.363800e-01	-4.622067e-02	0.0	6.211300e-01	-4.695082e-02	0.0	6.057600e-01	-4.760016e-02	0.0	5.902800e-01	-4.817747e-02	0.0	5.747100e-01	-4.869148e-02	0.0	5.590600e-01	-4.915119e-02	0.0	5.433600e-01	-4.956464e-02	0.0	5.276100e-01	-4.993996e-02	0.0	5.118400e-01	-5.028359e-02	0.0	4.960500e-01	-5.060149e-02	0.0	4.802700e-01	-5.089775e-02	0.0	4.645100e-01	-5.117554e-02	0.0	4.487800e-01	-5.143670e-02	0.0	4.331100e-01	-5.168146e-02	0.0	4.175000e-01	-5.190932e-02	0.0	4.019700e-01	-5.211839e-02	0.0	3.865400e-01	-5.230586e-02	0.0	3.712300e-01	-5.246816e-02	0.0	3.560400e-01	-5.260130e-02	0.0	3.409900e-01	-5.270061e-02	0.0	3.261100e-01	-5.276113e-02	0.0	3.114000e-01	-5.277790e-02	0.0	2.968700e-01	-5.274582e-02	0.0	2.825500e-01	-5.265996e-02	0.0	2.684500e-01	-5.251559e-02	0.0	2.545700e-01	-5.230801e-02	0.0	2.409400e-01	-5.203324e-02	0.0	2.275700e-01	-5.168749e-02	0.0	2.144700e-01	-5.126729e-02	0.0	2.016600e-01	-5.076993e-02	0.0	1.891400e-01	-5.019238e-02	0.0	1.769300e-01	-4.953284e-02	0.0	1.650400e-01	-4.878952e-02	0.0	1.534900e-01	-4.796177e-02	0.0	1.422900e-01	-4.704883e-02	0.0	1.314400e-01	-4.604934e-02	0.0	1.209500e-01	-4.496296e-02	0.0	1.108500e-01	-4.379208e-02	0.0	1.011300e-01	-4.253503e-02	0.0	9.181000e-02	-4.119389e-02	0.0	8.290000e-02	-3.976997e-02	0.0	7.440000e-02	-3.826304e-02	0.0	6.633000e-02	-3.667657e-02	0.0	5.869000e-02	-3.501058e-02	0.0	5.149000e-02	-3.326708e-02	0.0	4.474000e-02	-3.144844e-02	0.0	3.844000e-02	-2.955433e-02	0.0	3.260000e-02	-2.758711e-02	0.0	2.723000e-02	-2.554977e-02	0.0	2.232000e-02	-2.343708e-02	0.0	1.790000e-02	-2.126113e-02	0.0	1.395000e-02	-1.901092e-02	0.0	1.049000e-02	-1.669561e-02	0.0	7.520000e-03	-1.431461e-02	0.0	5.040000e-03	-1.186637e-02	0.0	3.050000e-03	-9.347302e-03	0.0	1.560000e-03	-6.769269e-03	0.0	5.600000e-04	-4.108233e-03	0.0	6.000000e-05	-1.363608e-03	0.0	0.000000e+00	0.000000e+00	0.0	6.000000e-05	1.350236e-03	0.0	5.600000e-04	4.050826e-03	0.0	1.560000e-03	6.663226e-03	0.0	3.050000e-03	9.195473e-03	0.0	5.040000e-03	1.167583e-02	0.0	7.520000e-03	1.409653e-02	0.0	1.049000e-02	1.646478e-02	0.0	1.395000e-02	1.878581e-02	0.0	1.790000e-02	2.106403e-02	0.0	2.232000e-02	2.329392e-02	0.0	2.723000e-02	2.549065e-02	0.0	3.260000e-02	2.764558e-02	0.0	3.844000e-02	2.976800e-02	0.0	4.474000e-02	3.185849e-02	0.0	5.149000e-02	3.391797e-02	0.0	5.869000e-02	3.595015e-02	0.0	6.633000e-02	3.795531e-02	0.0	7.440000e-02	3.993367e-02	0.0	8.290000e-02	4.188739e-02	0.0	9.181000e-02	4.381361e-02	0.0	1.011300e-01	4.571359e-02	0.0	1.108500e-01	4.758588e-02	0.0	1.209500e-01	4.942683e-02	0.0	1.314400e-01	5.123782e-02	0.0	1.422900e-01	5.301272e-02	0.0	1.534900e-01	5.474871e-02	0.0	1.650400e-01	5.644398e-02	0.0	1.769300e-01	5.809472e-02	0.0	1.891400e-01	5.969553e-02	0.0	2.016600e-01	6.124223e-02	0.0	2.144700e-01	6.272926e-02	0.0	2.275700e-01	6.415328e-02	0.0	2.409400e-01	6.550849e-02	0.0	2.545700e-01	6.679020e-02	0.0	2.684500e-01	6.799357e-02	0.0	2.825500e-01	6.911218e-02	0.0	2.968700e-01	7.014214e-02	0.0	3.114000e-01	7.107860e-02	0.0	3.261100e-01	7.191555e-02	0.0	3.409900e-01	7.264840e-02	0.0	3.560400e-01	7.327286e-02	0.0	3.712300e-01	7.378330e-02	0.0	3.865400e-01	7.417483e-02	0.0	4.019700e-01	7.444303e-02	0.0	4.175000e-01	7.458295e-02	0.0	4.331100e-01	7.458992e-02	0.0	4.487800e-01	7.445955e-02	0.0	4.645100e-01	7.418745e-02	0.0	4.802700e-01	7.376991e-02	0.0	4.960500e-01	7.320341e-02	0.0	5.118400e-01	7.248482e-02	0.0	5.276100e-01	7.161270e-02	0.0	5.433600e-01	7.058503e-02	0.0	5.590600e-01	6.940265e-02	0.0	5.747100e-01	6.806549e-02	0.0	5.902800e-01	6.657731e-02	0.0	6.057600e-01	6.494175e-02	0.0	6.211300e-01	6.316504e-02	0.0	6.363800e-01	6.125402e-02	0.0	6.515000e-01	5.921698e-02	0.0	6.664700e-01	5.706516e-02	0.0	6.812700e-01	5.481151e-02	0.0	6.958900e-01	5.246892e-02	0.0	7.103200e-01	5.005129e-02	0.0	7.245300e-01	4.757686e-02	0.0	7.385200e-01	4.505941e-02	0.0	7.522800e-01	4.251466e-02	0.0	7.657800e-01	3.996213e-02	0.0	7.790100e-01	3.741749e-02	0.0	7.919700e-01	3.489399e-02	0.0	8.046400e-01	3.240819e-02	0.0	8.170100e-01	2.997405e-02	0.0	8.290500e-01	2.760884e-02	0.0	8.407700e-01	2.532127e-02	0.0	8.521600e-01	2.312328e-02	0.0	8.631800e-01	2.103157e-02	0.0	8.738500e-01	1.905016e-02	0.0	8.841500e-01	1.718895e-02	0.0	8.940600e-01	1.545535e-02	0.0	9.035800e-01	1.385019e-02	0.0	9.127000e-01	1.237271e-02	0.0	9.214000e-01	1.102010e-02	0.0	9.296900e-01	9.781662e-03	0.0	9.375400e-01	8.650401e-03	0.0	9.449600e-01	7.612208e-03	0.0	9.519400e-01	6.656126e-03	0.0	9.584700e-01	5.772587e-03	0.0	9.645400e-01	4.954359e-03	0.0	9.701500e-01	4.195689e-03	0.0	9.752800e-01	3.496291e-03	0.0	9.799500e-01	2.852720e-03	0.0	9.841300e-01	2.270023e-03	0.0	9.878400e-01	1.747228e-03	0.0	9.910500e-01	1.290667e-03	0.0	9.937800e-01	8.994899e-04	0.0	9.960200e-01	5.767420e-04	0.0	9.977600e-01	3.250644e-04	0.0	9.990000e-01	1.452495e-04	0.0	9.997500e-01	3.632890e-05	0.0	1.000000e+00	0.000000e+00	0.0	1.984229e+01	2.506660e+00	0.0	1.937166e+01	4.973800e+00	0.0	1.859553e+01	7.362490e+00	0.0	1.752613e+01	9.635070e+00	0.0	1.618034e+01	1.175571e+01	0.0	1.457937e+01	1.369094e+01	0.0	1.274848e+01	1.541027e+01	0.0	1.071654e+01	1.688656e+01	0.0	8.515590e+00	1.809654e+01	0.0	6.180340e+00	1.902113e+01	0.0	3.747630e+00	1.964575e+01	0.0	1.255810e+00	1.996053e+01	0.0	-1.255810e+00	1.996053e+01	0.0	-3.747630e+00	1.964574e+01	0.0	-6.180340e+00	1.902113e+01	0.0	-8.515590e+00	1.809654e+01	0.0	-1.071654e+01	1.688656e+01	0.0	-1.274848e+01	1.541026e+01	0.0	-1.457937e+01	1.369094e+01	0.0	-1.618034e+01	1.175570e+01	0.0	-1.752613e+01	9.635070e+00	0.0	-1.859553e+01	7.362490e+00	0.0	-1.937166e+01	4.973800e+00	0.0	-1.984229e+01	2.506660e+00	0.0	-2.000000e+01	0.000000e+00	0.0	-1.984229e+01	-2.506670e+00	0.0	-1.937166e+01	-4.973800e+00	0.0	-1.859553e+01	-7.362490e+00	0.0	-1.752613e+01	-9.635080e+00	0.0	-1.618034e+01	-1.175571e+01	0.0	-1.457937e+01	-1.369094e+01	0.0	-1.274848e+01	-1.541027e+01	0.0	-1.071653e+01	-1.688656e+01	0.0	-8.515580e+00	-1.809654e+01	0.0	-6.180340e+00	-1.902113e+01	0.0	-3.747620e+00	-1.964575e+01	0.0	-1.255810e+00	-1.996053e+01	0.0	1.255810e+00	-1.996053e+01	0.0	3.747630e+00	-1.964574e+01	0.0	6.180340e+00	-1.902113e+01	0.0	8.515590e+00	-1.809654e+01	0.0	1.071654e+01	-1.688656e+01	0.0	1.274848e+01	-1.541026e+01	0.0	1.457937e+01	-1.369094e+01	0.0	1.618034e+01	-1.175570e+01	0.0	1.752614e+01	-9.635070e+00	0.0	1.859553e+01	-7.362490e+00	0.0	1.937166e+01	-4.973790e+00	0.0	1.984229e+01	-2.506660e+00	0.0	2.000000e+01	0.000000e+00	0.0	6.093892e-02	-4.285144e-02	0.0	6.600410e-01	-5.844939e-02	0.0	4.255297e-01	8.863687e-02	0.0	6.904536e-01	6.677179e-02	0.0	3.791252e-01	-6.656260e-02	0.0	9.994589e-01	-7.258723e-04	0.0	9.985402e-01	-1.320872e-03	0.0	7.738251e-01	-4.634860e-02	0.0	6.897588e-01	-5.606349e-02	0.0	-1.367138e-03	6.233161e-03	0.0	7.467650e-01	-4.997311e-02	0.0	5.838090e-01	8.122916e-02	0.0	9.927651e-01	-3.598793e-03	0.0	9.898616e-01	-4.480982e-03	0.0	5.994275e-01	7.958836e-02	0.0	7.187102e-01	-5.322760e-02	0.0	-1.548094e-03	7.305687e-04	0.0	9.864673e-01	-5.441292e-03	0.0	9.825916e-01	-6.470515e-03	0.0	-1.358171e-03	-6.336027e-03	0.0	6.449375e-01	-5.947833e-02	0.0	8.244939e-01	-3.842106e-02	0.0	7.997632e-01	-4.246746e-02	0.0	3.482204e-01	8.660152e-02	0.0	8.478910e-01	-3.434813e-02	0.0	2.468390e-01	7.862192e-02	0.0	8.698983e-01	-3.032503e-02	0.0	1.001408e-02	2.079824e-02	0.0	8.904116e-01	-2.642047e-02	0.0	7.722818e-02	-4.682321e-02	0.0	9.093595e-01	-2.267674e-02	0.0	-1.865007e-03	-3.138557e-03	0.0	9.422484e-01	-1.580904e-02	0.0	9.266631e-01	-1.912583e-02	0.0	1.806769e-02	-2.637803e-02	0.0	4.256782e-01	-6.623083e-02	0.0	8.590773e-01	-3.232303e-02	0.0	9.560748e-01	-1.276843e-02	0.0	9.782290e-01	-7.589010e-03	0.0	9.680882e-01	-1.002215e-02	0.0	1.584746e-01	-5.900398e-02	0.0	9.000881e-01	-2.452666e-02	0.0	7.604299e-01	-4.820093e-02	0.0	9.971132e-01	-2.058079e-03	0.0	5.988429e-01	-6.197001e-02	0.0	4.413590e-01	-6.604490e-02	0.0	5.361230e-01	-6.418097e-02	0.0	4.728882e-01	-6.557080e-02	0.0	5.045102e-01	-6.495629e-02	0.0	4.886866e-01	-6.528085e-02	0.0	1.251652e-01	-5.514410e-02	0.0	2.799454e-02	-3.148915e-02	0.0	3.945492e-01	-6.649285e-02	0.0	4.640172e-02	-3.855324e-02	0.0	4.100682e-01	-6.638196e-02	0.0	3.187978e-01	-6.636792e-02	0.0	3.486567e-01	-6.657206e-02	0.0	3.367005e-02	-3.391128e-02	0.0	2.896281e-01	-6.592628e-02	0.0	9.346743e-01	-1.743395e-02	0.0	1.470184e-01	-5.780948e-02	0.0	1.948400e-01	-6.200962e-02	0.0	8.600599e-02	-4.867547e-02	0.0	1.048018e-01	-5.210645e-02	0.0	5.676108e-01	-6.321237e-02	0.0	1.702734e-01	-6.010386e-02	0.0	6.143295e-01	-6.122907e-02	0.0	8.803501e-01	-2.835590e-02	0.0	2.280418e-02	-2.897635e-02	0.0	9.951875e-01	-2.803889e-03	0.0	6.796488e-03	-1.820110e-02	0.0	1.798544e-02	2.626178e-02	0.0	9.182203e-01	-2.087471e-02	0.0	9.49388
[...]
POINT_DATA 5233

SCALARS Conservative_1 float 1
LOOKUP_TABLE default
1.304807e-02	5.870777e-03	4.631598e-03	3.708267e-03	3.124474e-03	2.686312e-03	2.345082e-03	2.074837e-03	1.860756e-03	1.690993e-03	1.557782e-03	1.454969e-03	1.377729e-03	1.321859e-03	1.284014e-03	1.259806e-03	1.248007e-03	1.241517e-03	1.240652e-03	1.245418e-03	1.260049e-03	1.279853e-03	1.307659e-03	1.345560e-03	1.390941e-03	1.446544e-03	1.507040e-03	1.574384e-03	1.642820e-03	1.711164e-03	1.776941e-03	1.833058e-03	1.882180e-03	1.914220e-03	1.935376e-03	1.938125e-03	1.929017e-03	1.902729e-03	1.866604e-03	1.816338e-03	1.760601e-03	1.695738e-03	1.629572e-03	1.559053e-03	1.490705e-03	1.421791e-03	1.357431e-03	1.295499e-03	1.239015e-03	1.186963e-03	1.140420e-03	1.098602e-03	1.061494e-03	1.029916e-03	1.001649e-03	9.785431e-04	9.576334e-04	9.405370e-04	9.243390e-04	9.105865e-04	8.964870e-04	8.833263e-04	8.683785e-04	8.533410e-04	8.350978e-04	8.153741e-04	7.912883e-04	7.643115e-04	7.321870e-04	6.957488e-04	6.535770e-04	6.053292e-04	5.509014e-04	4.890525e-04	4.200518e-04	3.428687e-04	2.566250e-04	1.615574e-04	5.612864e-05	-5.969269e-05	-1.875603e-04	-3.277726e-04	-4.817735e-04	-6.503953e-04	-8.356271e-04	-1.037949e-03	-1.260113e-03	-1.502290e-03	-1.766328e-03	-2.051370e-03	-2.355651e-03	-2.666171e-03	-2.981372e-03	-3.292716e-03	-3.434943e-03	-3.253460e-03	-2.989649e-03	-2.725386e-03	-2.248055e-03	-1.783214e-03	-1.374463e-03	-3.671996e-04	8.112257e-04	1.132771e-03	2.628780e-03	6.760280e-03	1.050110e-02	1.127705e-02	1.016534e-02	8.906792e-03	7.930964e-03	7.085652e-03	6.314678e-03	5.626163e-03	5.023117e-03	4.505817e-03	4.058844e-03	3.678608e-03	3.348484e-03	3.059370e-03	2.807733e-03	2.578575e-03	2.373551e-03	2.187349e-03	2.020155e-03	1.873010e-03	1.740711e-03	1.620521e-03	1.516398e-03	1.422553e-03	1.343752e-03	1.271472e-03	1.203779e-03	1.137490e-03	1.073644e-03	1.026944e-03	1.004815e-03	1.025104e-03	1.102077e-03	1.265113e-03	1.469983e-03	1.658160e-03	1.731333e-03	1.707729e-03	1.640815e-03	1.567013e-03	1.490145e-03	1.403190e-03	1.303451e-03	1.188903e-03	1.067177e-03	9.359721e-04	8.022368e-04	6.616310e-04	5.140183e-04	3.648049e-04	2.081219e-04	5.335577e-05	-1.024427e-04	-2.590353e-04	-4.118703e-04	-5.658038e-04	-7.132929e-04	-8.609462e-04	-1.000829e-03	-1.140075e-03	-1.270939e-03	-1.400498e-03	-1.521512e-03	-1.641252e-03	-1.752993e-03	-1.864195e-03	-1.967243e-03	-2.070234e-03	-2.168988e-03	-2.264463e-03	-2.358260e-03	-2.449602e-03	-2.544533e-03	-2.640533e-03	-2.744931e-03	-2.849586e-03	-2.955151e-03	-3.062416e-03	-3.181483e-03	-3.312431e-03	-3.460604e-03	-3.626761e-03	-3.815563e-03	-4.030217e-03	-4.276484e-03	-4.560428e-03	-4.891127e-03	-5.279319e-03	-5.741730e-03	-6.301224e-03	-7.119485e-03	-7.892805e-03	-1.373895e-02	-7.802501e-04	-7.892802e-06	-7.541941e-06	-7.068164e-06	-6.587960e-06	-5.944054e-06	-5.228775e-06	-4.332016e-06	-3.304282e-06	-2.161670e-06	-8.327608e-07	9.935571e-07	3.186748e-06	5.692355e-06	8.033752e-06	9.542155e-06	1.077782e-05	1.120861e-05	1.116520e-05	1.073340e-05	1.012281e-05	9.533978e-06	7.980260e-06	8.372210e-06	1.408217e-05	9.769121e-06	7.993724e-06	9.047248e-06	7.231818e-06	-2.926787e-07	-7.197129e-07	-1.213355e-06	-1.997970e-06	-2.476394e-06	-3.069267e-06	-3.769901e-06	-4.431344e-06	-4.583582e-06	-5.157711e-06	-4.985016e-06	-5.789790e-06	-6.941724e-06	-7.661298e-06	-8.190252e-06	-8.519218e-06	-8.695631e-06	-8.778096e-06	-8.758110e-06	-8.618898e-06	-8.375771e-06	-8.190709e-06	-6.850559e-04	1.623387e-03	1.795572e-03	-4.661693e-04	8.229058e-04	9.832773e-03	6.703786e-03	1.611578e-03	1.689456e-03	-3.305457e-04	1.682500e-03	6.447380e-04	3.090361e-03	2.608892e-03	4.890212e-04	1.710722e-03	-1.684992e-03	2.255092e-03	1.987751e-03	-2.797519e-03	1.577800e-03	1.405863e-03	1.512198e-03	1.784610e-03	1.312068e-03	1.580734e-03	1.244314e-03	9.173880e-03	1.211265e-03	-3.832204e-04	1.210604e-03	-2.482276e-03	1.248169e-03	1.217502e-03	-2.234506e-03	8.876387e-04	1.273895e-03	1.331853e-03	1.781080e-03	1.496624e-03	3.831745e-04	1.207958e-03	1.652817e-03	4.822820e-03	1.407430e-03	9.159105e-04	1.171288e-03	9.838556e-04	1.069506e-03	1.024740e-03	1.654617e-04	-1.710277e-03	8.415568e-04	-1.045402e-03	8.634757e-04	7.608294e-04	7.902692e-04	-1.471105e-03	7.294188e-04	1.228400e-03	3.186994e-04	5.373151e-04	-2.517469e-04	-2.289898e-05	1.286144e-03	4.410515e-04	1.467982e-03	1.222854e-03	-1.965177e-03	3.776824e-03	-3.046365e-03	8.405012e-03	1.213742e-03	1.281703e-03	1.620522e-03	2.691541e-04	1.355655e-03	6.681682e-04	1.227826e-03	1.703324e-03	1.564622e-03	7.607167e-05	6.115838e-04	1.347213e-03	1.662246e-03	-8.576963e-04	-3.258016e-03	-2.509851e-03	8.055734e-04	4.921514e-04	1.385088e-02	6.421223e-04	-1.317961e-04	7.452576e-04	6.915397e-04	9.476910e-04	1.706969e-03	-1.237228e-03	-3.021255e-03	1.085976e-03	-2.025013e-03	6.942836e-03	4.716439e-03	5.720661e-03	2.733095e-03	1.845097e-03	-7.400486e-03	1.220412e-03	1.568976e-03	-3.905153e-03	-3.517872e-03	-2.438790e-03	1.464480e-03	1.733163e-03	1.889182e-03	-2.872372e-03	-2.660231e-03	3.641138e-03	-4.144611e-03	-3.358585e-03	-3.092082e-03	3.135643e-03	4.305447e-03	1.453921e-03	1.528044e-03	2.027960e-03	1.523435e-03	1.658895e-03	1.877110e-03	2.264223e-03	2.560298e-03	1.685646e-04	1.838552e-03	1.695705e-03	-1.519641e-04	7.987351e-04	-1.054593e-03	-7.684475e-04	-1.572020e-03	-1.322549e-03	-2.023584e-03	-1.805654e-03	-2.548000e-03	-2.231912e-03	-3.218312e-03	-2.769069e-03	-3.698275e-03	-2.129052e-03	-2.334856e-03	-1.689683e-03	-1.915483e-03	-1.189987e-03	-1.448578e-03	-6.181467e-04	-9.127074e-04	8.520905e-06	-3.093073e-04	9.454046e-04	3.291253e-04	1.761292e-03	1.636805e-03	2.139732e-03	1.927015e-03	5.187481e-03	2.404049e-03	9.291295e-03	6.311635e-03	5.771268e-04	2.515652e-03	1.401924e-03	1.458088e-03	7.751618e-04	1.118692e-03	4.419364e-04	7.607894e-03	6.525157e-03	3.372700e-03	3.949531e-03	1.481393e-03	2.924239e-03	-4.426029e-03	-4.761139e-03	1.459870e-03	-5.173346e-03	-5.697225e-03	1.645012e-03	1.862027e-03	-2.979477e-03	-1.574428e-02	-9.106804e-03	-1.178199e-02	1.524378e-03	-1.249652e-03	-6.397700e-03	1.346238e-03	-3.243293e-03	-2.779974e-03	-5.274266e-04	2.461746e-04	7.112738e-04	3.914875e-03	-5.682714e-04	-1.236895e-03	5.904132e-04	1.480340e-03	1.126075e-03	-2.814858e-03	9.085972e-04	1.461743e-03	1.405919e-03	2.440292e-03	6.423875e-04	1.185190e-03	1.250749e-03	-3.155548e-04	-2.799559e-03	4.601046e-04	-2.361258e-03	1.318025e-03	2.175588e-04	1.493208e-03	1.395924e-03	8.050941e-04	-4.379019e-04	7.094512e-04	1.123555e-03	1.368566e-03	5.911015e-03	7.123509e-03	-6.911459e-05	-1.863450e-03	3.070018e-03	-2.282493e-04	2.412108e-03	-2.189340e-03	-4.954817e-03	2.097408e-03	1.478227e-03	-3.208685e-03	-2.294979e-03	-5.448583e-03	-3.360379e-03	-4.234296e-03	1.980820e-03	2.041032e-03	2.032989e-03	3.246908e-03	1.430846e-03	4.222130e-04	7.571784e-03	2.635762e-03	4.885838e-03	-3.731557e-03	-6.081461e-03	-2.399181e-03	2.774038e-04	-6.419084e-03	-7.925562e-03	-6.949730e-03	2.746864e-03	-1.813418e-04	-3.019940e-03	-2.231876e-03	-1.905608e-03	-2.119681e-03	3.299232e-03	-7.180042e-04	5.231512e-03	3.449036e-03	1.993711e-03	1.045472e-03	2.114687e-03	1.142187e-03	7.464835e-04	2.867238e-03	-2.572995e-03	7.767151e-04	2.018375e-03	1.214376e-03	1.879529e-03	1.159904e-03	1.130081e-03	-5.720063e-04	1.122504e-03	1.136073e-03	1.203609e-03	-1.654518e-03	1.251333e-03	1.406736e-03	1.867252e-03	7.417353e-05	1.463649e-03	1.439095e-03	4.266849e-03	8.362550e-04	8.708889e-04	9.100785e-04	-1.882457e-03	7.290055e-04	7.523067e-04	6.576104e-04	-1.237963e-03	1.148810e-03	1.170583e-03	1.495185e-04	-2.035984e-04	1.097236e-03	1.253238e-03	1.523041e-03	1.672848e-03	1.491872e-03	1.484509e-03	-1.021755e-04	-8.968754e-06	1.148060e-03	1.202441e-03	-1.051191e-03	-8.774651e-04	-2.596131e-03	6.742469e-04	6.906977e-04	3.318834e-04	3.797788e-04	4.926270e-04	5.221759e-04	6.092096e-04	6.256564e-04	5.475164e-04	-1.676817e-03	-3.119934e-03	5.288895e-03	-4.556958e-03	1.347716e-03	1.604009e-03	1.714954e-03	1.811287e-03	-3.961477e-03	-3.533583e-03	-2.729406e-03	1.888315e-03	1.950574e-03	2.034798e-03	-2.617662e-03	-3.072463e-03	4.198018e-03	4.520789e-03	1.932969e-03	1.897517e-03	2.517741e-03	2.765777e-03	2.909885e-03	-1.383573e-03	-8.399797e-04	-6.946203e-04	-1.256585e-03	-1.749838e-03	-2.507134e-03	-2.083683e-03	-1.974154e-03	-1.630092e-03	-1.510985e-03	-1.121354e-03	-9.848675e-04	-5.416253e-04	-3.882662e-04	9.519978e-05	2.578034e-04	1.061073e-03	1.208211e-03	4.228723e-04	5.864337e-04	2.091443e-03	2.158801e-03	2.233196e-03	2.318642e-03	7.597345e-03	5.726240e-03	6.185225e-03	1.329761e-03	1.288348e-03	9.520385e-04	9.982653e-04	4.024497e-04	6.651742e-03	3.444834e-03	3.665419e-03	1.954954e-03	1.897931e-03	2.061590e-03	2.095270e-03	-2.951318e-03	-2.837090e-03	1.305521e-03	1.351311e-03	-1.438898e-03	-3.013417e-03	5.708680e-04	-2.597565e-03	6.086775e-04	4.778000e-04	1.221802e-03	8.900415e-04	1.029921e-03	-4.858034e-03	-4.498832e-03	-3.319883e-03	6.664338e-04	-5.245089e-03	-9.814197e-03	-9.174769e-03	3.743613e-03	-1.632945e-03	-2.006077e-03	-1.806873e-03	-3.776962e-04	1.046237e-03	2.338783e-03	1.113165e-03	7.155466e-03	-2.786522e-03	1.296465e-03	-2.937967e-03	1.300885e-03	-2.216450e-03	1.041328e-03	-2.614101e-03	5.343503e-04	1.058546e-03	1.280829e-03	2.654845e-03	-2.424494e-03	-3.928927e-03	1.545238e-03	-3.020855e-03	1.299540e-04	-5.762682e-03	1.680341e-03	2.236296e-03	2.360196e-03	2.757050e-03	4.155108e-03	-9.857554e-03	-2.792380e-03	-7.975876e-04	6.234981e-03	-1.329306e-03	1.274748e-03	-4.899771e-04	-2.045481e-03	1.177078e-04	7.083585e-04	-1.795120e-03	4.896067e-03	-1.695185e-03	-1.207744e-03	-3.340390e-05	-4.193778e-03	-3.162838e-03	-2.230378e-03	-2.126563e-03	2.368467e-03	2.268779e-03	2.311914e-03	3.377157e-03	1.231079e-03	1.260543e-03	3.108648e-04	6.035569e-03	2.858912e-03	-3.697124e-03	-6.491022e-03	2.705994e-03	-3.035585e-04	-2.921639e-03	-2.352807e-03	-1.592676e-03	6.132496e-03	7.108350e-03	1.370524e-03	2.057936e-03	9.548569e-04	6.802395e-04	2.137419e-03	1.106583e-03	1.079513e-03	1.029007e-03	1.022166e-03	-7.468839e-04	-6.132323e-04	1.017845e-03	1.021782e-03	1.142752e-03	1.199575e-03	1.829636e-03	1.271051e-03	1.252573e-03	3.094225e-03	7.408103e-04	7.728479e-04	6.293147e-04	6.542241e-04	-1.401151e-03	1.069133e-03	1.099726e-03	-1.564528e-05	5.411353e-05	9.349627e-04	9.792263e-04	1.490981e-03	1.642944e-03	1.302058e-03	1.293109e-03	-2.744459e-04	-1.796993e-04	-9.295902e-05	1.026187e-03	1.070960e-03	-1.220309e-03	-1.050049e-03	-8.913098e-04	5.508768e-04	5.700720e-04	5.876202e-04	1.743114e-04	2.249447e-04	2.713847e-04	3.481496e-04	3.788625e-04	4.982844e-04	5.155931e-04	4.089167e-04	4.955916e-03	1.800543e-03	1.905527e-03	-3.497212e-03	1.988598e-03	2.057771e-03	2.107039e-03	2.153139e-03	-2.549258e-03	4.399584e-03	4.670211e-03	2.234832e-03	2.265537e-03	2.970220e-03	3.092071e-03	3.227923e-03	-6.538412e-04	-2.441281e-03	-2.332518e-03	-2.023756e-03	-1.915119e-03	-1.807223e-03	-1.573589e-03	-1.459388e-03	-1.336852e-03	-1.077244e-03	-9.409439e-04	-7.997316e-04	-5.040745e-04	-3.507674e-04	-1.929933e-04	2.932934e-04	1.263966e-03	1.406673e-03	4.590807e-04	6.235377e-04	7.875967e-04	2.372680e-03	2.438848e-03	2.508529e-03	2.584962e-03	2.665141e-03	5.251419e-03	5.547912e-03	1.195332e-03	1.165876e-03	1.134062e-03	8.082898e-04	8.498405e-04	5.835170e-03	6.083581e-03	3.544425e-03	3.727752e-03	3.932126e-03	2.325929e-03	2.172704e-03	2.222180e-03	2.291175e-03	-2.893699e-03	-2.773537e-03	-2.661916e-03	1.116519e-03	1.157814e-03	1.197846e-03	4.338564e-04	4.581007e-04	-2.580349e-03	-4.331390e-04	-5.223670e-03	-3.808167e-03	8.147398e-04	-1.780113e-03	3.956140e-03	9.371439e-04	9.604000e-04	-1.522176e-03	-4.580536e-03	1.798075e-03	-2.726084e-03	4.821472e-03	-2.552747e-03	-3.090410e-03	-4.859008e-03	-8.154715e-04	2.767434e-04	-2.063633e-04	-4.954978e-03	1.754385e-03	1.084821e-03	2.793647e-05	-1.882660e-03	5.258256e-04	-5.355776e-04	6.004648e-04	3.816317e-04	-4.038663e-03	1.255802e-03	-2.950446e-03	-2.823167e-03	-1.054200e-03	3.038704e-03	2.494964e-03	1.856931e-03	4.316184e-03	9.477047e-04	-6.742129e-03	-4.296111e-03	2.514256e-03	1.285702e-03	-2.065388e-03	1.148193e-03	-2.669383e-03	1.139694e-03	1.159858e-03	-2.243264e-03	2.057496e-03	-2.411035e-03	-1.545424e-03	1.680430e-03	2.581854e-03	-1.329924e-03	3.913122e-03	1.184969e-04	-2.066140e-03	2.521553e-03	2.576970e-03	2.534354e-03	1.111390e-03	1.116860e-03	-3.598014e-03	2.381912e-03	8.077603e-04	-2.753198e-03	-2.428580e-03	-1.696316e-03	1.197552e-03	1.676582e-03	1.088989e-03	9.844627e-04	9.614180e-04	9.330838e-04	9.260343e-04	-7.685788e-04	-6.475011e-04	9.196303e-04	9.206709e-04	9.292971e-04	1.067963e-03	1.125306e-03	1.131169e-03	1.095637e-03	2.247230e-03	6.322985e-04	6.650936e-04	5.464283e-04	5.746652e-04	9.882990e-04	1.022177e-03	-9.752130e-05	-3.573398e-05	8.443829e-04	1.393367e-03	1.523876e-03	1.148513e-03	1.131015e-03	-3.374529e-04	-2.521399e-04	-1.686728e-04	8.960606e-04	9.249535e-04	-1.354936e-03	-1.193391e-03	-1.038807e-03	-8.983320e-04	4.411454e-04	4.620578e-04	4.810787e-04	5.032722e-04	7.822361e-05	1.295818e-04	1.712196e-04	2.125128e-04	2.459537e-04	4.226302e-04	4.012918e-04	2.796571e-04	1.922292e-03	-3.411015e-03	-3.243124e-03	2.013034e-03	2.091513e-03	2.153212e-03	2.197651e-03	2.223560e-03	4.501904e-03	4.681364e-03	2.489222e-03	2.512631e-03	3.141022e-03	3.248842e-03	3.367857e-03	3.497682e-03	-2.367209e-03	-2.264218e-03	-2.162687e-03	-1.965292e-03	-1.863483e-03	-1.756887e-03	-1.650199e-03	-1.424191e-03	-1.301750e-03	-1.192452e-03	-9.292569e-04	-7.838917e-04	-6.498851e-04	-4.976974e-04	-3.549013e-04	-1.964248e-04	-4.444136e-05	1.533060e-03	1.392263e-03	4.404299e-04	6.031594e-04	7.680921e-04	9.360839e-04	2.568093e-03	2.634436e-03	2.709181e-03	2.787807e-03	2.864011e-03	2.947882e-03	4.851182e-03	5.008713e-03	1.054575e-03	1.026016e-03	1.005560e-03	6.938340e-04	7.384226e-04	7.666561e-04	5.142790e-03	5.216395e-03	5.162834e-03	3.639649e-03	3.793608e-03	3.964765e-03	4.139646e-03	2.242477e-03	2.275491e-03	2.327945e-03	2.419682e-03	-2.475075e-03	-2.700970e-03	-2.590415e-03	9.772262e-04	1.002045e-03	1.051520e-03	1.068712e-03	3.076148e-04	3.356439e-04	3.580476e-04	-2.067610e-03	-4.700787e-03	1.094926e-03	-7.359029e-03	-2.214247e-03	1.022443e-03	-4.752049e-04	-2.339506e-03	-3.461741e-03	-2.519079e-03	-1.595512e-03	-4.816307e-05	3.251652e-03	3.095941e-03	-1.200810e-04	-1.728627e-03	-2.070685e-03	-2.177155e-03	-2.068599e-03	-2.586173e-03	2.032735e-03	2.584519e-03	1.168041e-03	1.584574e-03	8.842252e-04	9.733382e-04	4.573861e-04	-4.238814e-03	-2.321630e-03	-2.626392e-03	1.409779e-03	1.666400e-03	3.177436e-04	-8.496988e-04	1.866275e-03	7.195007e-04	2.480154e-03	-4.040842e-03	-5.690083e-04	-7.626406e-03	-3.640033e-03	-2.241859e-03	4.214172e-03	4.727319e-03	8.699385e-04	-1.449127e-03	-2.545092e-03	3.861706e-03	-2.431889e-03	-2.867371e-03	-7.692901e-04	-2.935539e-03	-5.596531e-04	-1.917084e-03	3.337961e-04	3.029267e-04	-3.826750e-03	1.189612e-03	-2.745538e-03	1.454372e-03	1.006816e-03	-1.282074e-03	2.692429e-03	2.705294e-03	2.683831e-03	9.756751e-04	1.983040e-03	8.060996e-04	-2.438819e-03	-1.755644e-03	8.822836e-04	8.772183e-04	8.565903e-04	8.542744e-04	-6.724852e-04	-7.814684e-04	8.384501e-04	8.423196e-04	8.406725e-04	8.441324e-04	9.822318e-04	1.033575e-03	1.000067e-03	1.694734e-03	5.437473e-04	5.672084e-04	4.885228e-04	5.068079e-04	9.081366e-04	9.406031e-04	-1.653644e-04	-9.533995e-05	1.253495e-03	1.349796e-03	1.008722e-03	-3.864999e-04	-2.975560e-04	-2.305684e-04	7.907460e-04	-1.302647e-03	-1.157271e-03	-1.022242e-03	-8.984168e-04	3.466362e-04	3.759528e-04	3.888934e-04	4.191895e-04	4.360883e-04	1.309505e-05	4.952590e-05	1.021384e-04	1.301320e-04	1.749153e-04	-3.295847e-03	-3.141940e-03	-3.000254e-03	1.984733e-03	2.061245e-03	2.143348e-03	2.192547e-03	2.240324e-03	4.324167e-03	4.405735e-03	2.659517e-03	2.640892e-03	3.340871e-03	3.443130e-03	3.567134e-03	-2.208867e-03	-2.120567e-03	-2.018104e-03	-1.932685e-03	-1.823694e-03	-1.729281e-03	-1.615554e-03	-1.459663e-03	-1.278643e-03	-1.101839e-03	-5.752662e-04	-2.899692e-04	8.846627e-06	6.335040e-04	9.449755e-04	2.674324e-03	2.725500e-03	2.804192e-03	2.888482e-03	2.964523e-03	3.055707e-03	3.146736e-03	4.463587e-03	4.507998e-03	9.343375e-04	9.250444e-04	9.042333e-04	5.969101e-04	6.512973e-04	4.522234e-03	4.459667e-03	4.268915e-03	3.692347e-03	3.822571e-03	3.963476e-03	4.094259e-03	4.210099e-03	2.261878e-03	2.293656e-03	2.318797e-03	2.375315e-03	-2.517855e-03	-2.416084e-03	8.609155e-04	9.245992e-04	1.979135e-04	2.373752e-04	2.546481e-04	2.884033e-04	4.863245e-03	-7.663189e-03	-2.135151e-03	-2.027344e-03	1.168690e-03	1.013768e-03	-3.593512e-03	-1.203894e-03	-2.763857e-03	1.949476e-03	1.128814e-03	-2.414142e-03	-1.496802e-03	-2.022203e-03	2.426798e-03	-4.616873e-03	1.604152e-03	-6.997728e-04	-1.898676e-03	9.633501e-04	5.912842e-04	-3.430782e-03	2.555395e-04	8.028048e-04	7.824835e-04	7.744503e-04	-5.030777e-04	-7.690324e-05	-2.370392e-03	4.162054e-04	-6.844453e-04	-5.919393e-04	3.412871e-03	-3.145486e-03	-2.213307e-03	-1.628042e-03	2.446245e-03	9.181150e-04	-7.244201e-03	-3.282709e-03	-2.140006e-03	-2.445238e-03	1.201691e-03	8.896869e-04	1.739860e-03	1.944828e-03	-3.775552e-03	-1.778033e-03	-4.677846e-03	-2.333933e-03	4.263949e-03	-1.371671e-03	-2.271789e-03	-2.212044e-03	1.284392e-03	-1.628171e-03	-2.653203e-03	-2.548444e-03	1.511607e-03	2.628007e-03	2.732256e-03	8.827564e-04	7.180325e-04	-6.709231e-05	-1.769742e-03	7.935995e-04	7.767100e-04	-7.862644e-04	7.689289e-04	7.636012e-04	8.792021e-04	1.291787e-03	4.680899e-04	8.207725e-04	8.472062e-04	-1.819980e-04	1.067598e-03	8.807610e-04	8.679367e-04	-3.773748e-04	-2.803804e-04	6.529422e-04	-1.241732e-03	-1.109675e-03	-9.960269e-04	-8.906893e-04	3.004035e-04	3.464288e-04	3.751826e-04	1.172070e-05	8.738086e-05	-3.011386e-03	-2.884219e-03	2.105547e-03	2.212557e-03	4.094588e-03	2.734232e-03	3.556023e-03	-1.100213e-03	-2.026960e-03	-1.835791e-03	-1.636231e-03	-1.443470e-03	-1.270940e-03	-8.909468e-04	-6.373968e-04	-3.688416e-04	-9.130096e-05	1.975731e-04	4.948401e-04	7.919374e-04	1.059822e-03	2.791601e-03	2.929744e-03	3.071174e-03	3.176097e-03	3.276129e-03	4.058985e-03	4.018703e-03	8.465996e-04	8.331005e-04	8.067280e-04	5.025284e-04	5.369467e-04	3.949069e-03	3.796516e-03	3.517471e-03	3.089522e-03	3.672980e-03	3.783457e-03	3.893291e-03	3.986904e-03	4.044174e-03	4.135840e-03	2.273495e-03	2.314178e-03	-2.462773e-03	-2.349378e-03	7.158044e-04	8.245690e-04	8.613568e-04	1.524784e-04	2.072093e-04	-3.866381e-03	3.732889e-03	3.717609e-03	-5.026269e-03	-1.012832e-03	-3.429717e-03	-3.218673e-03	1.623584e-03	-2.011972e-03	-1.738549e-03	2.244086e-03	1.310673e-03	5.859362e-04	-1.521561e-03	-2.349411e-03	-2.743208e-03	7.822750e-04	2.283132e-03	-4.301747e-03	6.849947e-04	-1.505675e-03	3.794525e-03	1.270772e-03	-1.940923e-03	3.276430e-04	7.122713e-04	7.104782e-04	5.515971e-04	8.044139e-04	8.326827e-04	-1.398522e-03	-1.289266e-03	-5.800685e-03	-3.098848e-03	-3.233311e-03	-2.541817e-03	2.608319e-03	1.120254e-03	7.736105e-04	-7.784702e-04	-6.576710e-03	-6.653109e-03	-2.184750e-03	7.777963e-04	-2.639385e-03	-2.643174e-04	8.696447e-04	-1.113150e-03	-1.840701e-03	4.974876e-04	-2.277287e-03	-6.935778e-04	-6.086447e-04	-2.974543e-03	-1.944036e-03	7.563327e-04	9.071162e-04	7.838126e-04	-2.335559e-03	2.562188e-03	-8.729451e-04	-2.121546e-03	-2.044094e-03	1.558685e-03	-1.625629e-03	-2.449935e-03	1.338705e-03	2.413048e-03	8.823489e-04	-6.081351e-05	-6.296351e-04	6.946406e-04	6.866663e-04	6.892041e-04	7.027012e-04	9.976801e-04	3.731292e-04	7.233539e-04	7.377050e-04	2.925910e-04	7.397174e-04	7.249712e-04	7.742249e-04	-5.110255e-04	-4.036853e-04	-3.158376e-04	-1.167695e-03	2.017359e-04	2.502050e-04	-2.183563e-04	-1.225486e-04	7.486066e-04	-2.856213e-03	1.773047e-03	1.958050e-03	3.477937e-03	-2.002472e-03	-1.813078e-03	-1.095200e-03	-1.617154e-03	-1.429101e-03	-1.257287e-03	-9.182602e-04	-7.040594e-04	-4.610225e-04	-2.051874e-04	6.001748e-05	3.359202e-04	6.160855e-04	2.734800e-03	2.785299e-03	2.868586e-03	3.009346e-03	3.181588e-03	3.344814e-03	3.637045e-03	3.533612e-03	7.593076e-04	7.083004e-04	4.188962e-04	4.542236e-04	3.411364e-03	3.211556e-03	2.892428e-03	2.465093e-03	1.922993e-03	3.580056e-03	3.666530e-03	3.747225e-03	3.797963e-03	3.8