# vtk DataFile Version 3.0
vtk output
ASCII
DATASET UNSTRUCTURED_GRID
POINTS 5233 float
9.997500e-01	-3.632909e-05	0.0	9.990000e-01	-1.452618e-04	0.0	9.977600e-01	-3.252008e-04	0.0	9.960200e-01	-5.774943e-04	0.0	9.937800e-01	-9.022942e-04	0.0	9.910500e-01	-1.298763e-03	0.0	9.878400e-01	-1.766726e-03	0.0	9.841300e-01	-2.311194e-03	0.0	9.799500e-01	-2.930640e-03	0.0	9.752800e-01	-3.631444e-03	0.0	9.701500e-01	-4.412625e-03	0.0	9.645400e-01	-5.280292e-03	0.0	9.584700e-01	-6.233365e-03	0.0	9.519400e-01	-7.272227e-03	0.0	9.449600e-01	-8.393908e-03	0.0	9.375400e-01	-9.593773e-03	0.0	9.296900e-01	-1.086609e-02	0.0	9.214000e-01	-1.220804e-02	0.0	9.127000e-01	-1.361074e-02	0.0	9.035800e-01	-1.507272e-02	0.0	8.940600e-01	-1.658877e-02	0.0	8.841500e-01	-1.815610e-02	0.0	8.738500e-01	-1.977361e-02	0.0	8.631800e-01	-2.143627e-02	0.0	8.521600e-01	-2.313752e-02	0.0	8.407700e-01	-2.487471e-02	0.0	8.290500e-01	-2.663345e-02	0.0	8.170100e-01	-2.840162e-02	0.0	8.046400e-01	-3.016792e-02	0.0	7.919700e-01	-3.191393e-02	0.0	7.790100e-01	-3.362378e-02	0.0	7.657800e-01	-3.528073e-02	0.0	7.522800e-01	-3.687177e-02	0.0	7.385200e-01	-3.838440e-02	0.0	7.245300e-01	-3.980643e-02	0.0	7.103200e-01	-4.113073e-02	0.0	6.958900e-01	-4.235375e-02	0.0	6.812700e-01	-4.347212e-02	0.0	6.664700e-01	-4.448693e-02	0.0	6.515000e-01	-4.540154e-02	0.0	6.363800e-01	-4.622067e-02	0.0	6.211300e-01	-4.695082e-02	0.0	6.057600e-01	-4.760016e-02	0.0	5.902800e-01	-4.817747e-02	0.0	5.747100e-01	-4.869148e-02	0.0	5.590600e-01	-4.915119e-02	0.0	5.433600e-01	-4.956464e-02	0.0	5.276100e-01	-4.993996e-02	0.0	5.118400e-01	-5.028359e-02	0.0	4.960500e-01	-5.060149e-02	0.0	4.802700e-01	-5.089775e-02	0.0	4.645100e-01	-5.117554e-02	0.0	4.487800e-01	-5.143670e-02	0.0	4.331100e-01	-5.168146e-02	0.0	4.175000e-01	-5.190932e-02	0.0	4.019700e-01	-5.211839e-02	0.0	3.865400e-01	-5.230586e-02	0.0	3.712300e-01	-5.246816e-02	0.0	3.560400e-01	-5.260130e-02	0.0	3.409900e-01	-5.270061e-02	0.0	3.261100e-01	-5.276113e-02	0.0	3.114000e-01	-5.277790e-02	0.0	2.968700e-01	-5.274582e-02	0.0	2.825500e-01	-5.265996e-02	0.0	2.684500e-01	-5.251559e-02	0.0	2.545700e-01	-5.230801e-02	0.0	2.409400e-01	-5.203324e-02	0.0	2.275700e-01	-5.168749e-02	0.0	2.144700e-01	-5.126729e-02	0.0	2.016600e-01	-5.076993e-02	0.0	1.891400e-01	-5.019238e-02	0.0	1.769300e-01	-4.953284e-02	0.0	1.650400e-01	-4.878952e-02	0.0	1.534900e-01	-4.796177e-02	0.0	1.422900e-01	-4.704883e-02	0.0	1.314400e-01	-4.604934e-02	0.0	1.209500e-01	-4.496296e-02	0.0	1.108500e-01	-4.379208e-02	0.0	1.011300e-01	-4.253503e-02	0.0	9.181000e-02	-4.119389e-02	0.0	8.290000e-02	-3.976997e-02	0.0	7.440000e-02	-3.826304e-02	0.0	6.633000e-02	-3.667657e-02	0.0	5.869000e-02	-3.501058e-02	0.0	5.149000e-02	-3.326708e-02	0.0	4.474000e-02	-3.144844e-02	0.0	3.844000e-02	-2.955433e-02	0.0	3.260000e-02	-2.758711e-02	0.0	2.723000e-02	-2.554977e-02	0.0	2.232000e-02	-2.343708e-02	0.0	1.790000e-02	-2.126113e-02	0.0	1.395000e-02	-1.901092e-02	0.0	1.049000e-02	-1.669561e-02	0.0	7.520000e-03	-1.431461e-02	0.0	5.040000e-03	-1.186637e-02	0.0	3.050000e-03	-9.347302e-03	0.0	1.560000e-03	-6.769269e-03	0.0	5.600000e-04	-4.108233e-03	0.0	6.000000e-05	-1.363608e-03	0.0	0.000000e+00	0.000000e+00	0.0	6.000000e-05	1.350236e-03	0.0	5.600000e-04	4.050826e-03	0.0	1.560000e-03	6.663226e-03	0.0	3.050000e-03	9.195473e-03	0.0	5.040000e-03	1.167583e-02	0.0	7.520000e-03	1.409653e-02	0.0	1.049000e-02	1.646478e-02	0.0	1.395000e-02	1.878581e-02	0.0	1.790000e-02	2.106403e-02	0.0	2.232000e-02	2.329392e-02	0.0	2.723000e-02	2.549065e-02	0.0	3.260000e-02	2.764558e-02	0.0	3.844000e-02	2.976800e-02	0.0	4.474000e-02	3.185849e-02	0.0	5.149000e-02	3.391797e-02	0.0	5.869000e-02	3.595015e-02	0.0	6.633000e-02	3.795531e-02	0.0	7.440000e-02	3.993367e-02	0.0	8.290000e-02	4.188739e-02	0.0	9.181000e-02	4.381361e-02	0.0	1.011300e-01	4.571359e-02	0.0	1.108500e-01	4.758588e-02	0.0	1.209500e-01	4.942683e-02	0.0	1.314400e-01	5.123782e-02	0.0	1.422900e-01	5.301272e-02	0.0	1.534900e-01	5.474871e-02	0.0	1.650400e-01	5.644398e-02	0.0	1.769300e-01	5.809472e-02	0.0	1.891400e-01	5.969553e-02	0.0	2.016600e-01	6.124223e-02	0.0	2.144700e-01	6.272926e-02	0.0	2.275700e-01	6.415328e-02	0.0	2.409400e-01	6.550849e-02	0.0	2.545700e-01	6.679020e-02	0.0	2.684500e-01	6.799357e-02	0.0	2.825500e-01	6.911218e-02	0.0	2.968700e-01	7.014214e-02	0.0	3.114000e-01	7.107860e-02	0.0	3.261100e-01	7.191555e-02	0.0	3.409900e-01	7.264840e-02	0.0	3.560400e-01	7.327286e-02	0.0	3.712300e-01	7.378330e-02	0.0	3.865400e-01	7.417483e-02	0.0	4.019700e-01	7.444303e-02	0.0	4.175000e-01	7.458295e-02	0.0	4.331100e-01	7.458992e-02	0.0	4.487800e-01	7.445955e-02	0.0	4.645100e-01	7.418745e-02	0.0	4.802700e-01	7.376991e-02	0.0	4.960500e-01	7.320341e-02	0.0	5.118400e-01	7.248482e-02	0.0	5.276100e-01	7.161270e-02	0.0	5.433600e-01	7.058503e-02	0.0	5.590600e-01	6.940265e-02	0.0	5.747100e-01	6.806549e-02	0.0	5.902800e-01	6.657731e-02	0.0	6.057600e-01	6.494175e-02	0.0	6.211300e-01	6.316504e-02	0.0	6.363800e-01	6.125402e-02	0.0	6.515000e-01	5.921698e-02	0.0	6.664700e-01	5.706516e-02	0.0	6.812700e-01	5.481151e-02	0.0	6.958900e-01	5.246892e-02	0.0	7.103200e-01	5.005129e-02	0.0	7.245300e-01	4.757686e-02	0.0	7.385200e-01	4.505941e-02	0.0	7.522800e-01	4.251466e-02	0.0	7.657800e-01	3.996213e-02	0.0	7.790100e-01	3.741749e-02	0.0	7.919700e-01	3.489399e-02	0.0	8.046400e-01	3.240819e-02	0.0	8.170100e-01	2.997405e-02	0.0	8.290500e-01	2.760884e-02	0.0	8.407700e-01	2.532127e-02	0.0	8.521600e-01	2.312328e-02	0.0	8.631800e-01	2.103157e-02	0.0	8.738500e-01	1.905016e-02	0.0	8.841500e-01	1.718895e-02	0.0	8.940600e-01	1.545535e-02	0.0	9.035800e-01	1.385019e-02	0.0	9.127000e-01	1.237271e-02	0.0	9.214000e-01	1.102010e-02	0.0	9.296900e-01	9.781662e-03	0.0	9.375400e-01	8.650401e-03	0.0	9.449600e-01	7.612208e-03	0.0	9.519400e-01	6.656126e-03	0.0	9.584700e-01	5.772587e-03	0.0	9.645400e-01	4.954359e-03	0.0	9.701500e-01	4.195689e-03	0.0	9.752800e-01	3.496291e-03	0.0	9.799500e-01	2.852720e-03	0.0	9.841300e-01	2.270023e-03	0.0	9.878400e-01	1.747228e-03	0.0	9.910500e-01	1.290667e-03	0.0	9.937800e-01	8.994899e-04	0.0	9.960200e-01	5.767420e-04	0.0	9.977600e-01	3.250644e-04	0.0	9.990000e-01	1.452495e-04	0.0	9.997500e-01	3.632890e-05	0.0	1.000000e+00	0.000000e+00	0.0	1.984229e+01	2.506660e+00	0.0	1.937166e+01	4.973800e+00	0.0	1.859553e+01	7.362490e+00	0.0	1.752613e+01	9.635070e+00	0.0	1.618034e+01	1.175571e+01	0.0	1.457937e+01	1.369094e+01	0.0	1.274848e+01	1.541027e+01	0.0	1.071654e+01	1.688656e+01	0.0	8.515590e+00	1.809654e+01	0.0	6.180340e+00	1.902113e+01	0.0	3.747630e+00	1.964575e+01	0.0	1.255810e+00	1.996053e+01	0.0	-1.255810e+00	1.996053e+01	0.0	-3.747630e+00	1.964574e+01	0.0	-6.180340e+00	1.902113e+01	0.0	-8.515590e+00	1.809654e+01	0.0	-1.071654e+01	1.688656e+01	0.0	-1.274848e+01	1.541026e+01	0.0	-1.457937e+01	1.369094e+01	0.0	-1.618034e+01	1.175570e+01	0.0	-1.752613e+01	9.635070e+00	0.0	-1.859553e+01	7.362490e+00	0.0	-1.937166e+01	4.973800e+00	0.0	-1.984229e+01	2.506660e+00	0.0	-2.000000e+01	0.000000e+00	0.0	-1.984229e+01	-2.506670e+00	0.0	-1.937166e+01	-4.973800e+00	0.0	-1.859553e+01	-7.362490e+00	0.0	-1.752613e+01	-9.635080e+00	0.0	-1.618034e+01	-1.175571e+01	0.0	-1.457937e+01	-1.369094e+01	0.0	-1.274848e+01	-1.541027e+01	0.0	-1.071653e+01	-1.688656e+01	0.0	-8.515580e+00	-1.809654e+01	0.0	-6.180340e+00	-1.902113e+01	0.0	-3.747620e+00	-1.964575e+01	0.0	-1.255810e+00	-1.996053e+01	0.0	1.255810e+00	-1.996053e+01	0.0	3.747630e+00	-1.964574e+01	0.0	6.180340e+00	-1.902113e+01	0.0	8.515590e+00	-1.809654e+01	0.0	1.071654e+01	-1.688656e+01	0.0	1.274848e+01	-1.541026e+01	0.0	1.457937e+01	-1.369094e+01	0.0	1.618034e+01	-1.175570e+01	0.0	1.752614e+01	-9.635070e+00	0.0	1.859553e+01	-7.362490e+00	0.0	1.937166e+01	-4.973790e+00	0.0	1.984229e+01	-2.506660e+00	0.0	2.000000e+01	0.000000e+00	0.0	6.093892e-02	-4.285144e-02	0.0	6.600410e-01	-5.844939e-02	0.0	4.255297e-01	8.863687e-02	0.0	6.904536e-01	6.677179e-02	0.0	3.791252e-01	-6.656260e-02	0.0	9.994589e-01	-7.258723e-04	0.0	9.985402e-01	-1.320872e-03	0.0	7.738251e-01	-4.634860e-02	0.0	6.897588e-01	-5.606349e-02	0.0	-1.367138e-03	6.233161e-03	0.0	7.467650e-01	-4.997311e-02	0.0	5.838090e-01	8.122916e-02	0.0	9.927651e-01	-3.598793e-03	0.0	9.898616e-01	-4.480982e-03	0.0	5.994275e-01	7.958836e-02	0.0	7.187102e-01	-5.322760e-02	0.0	-1.548094e-03	7.305687e-04	0.0	9.864673e-01	-5.441292e-03	0.0	9.825916e-01	-6.470515e-03	0.0	-1.358171e-03	-6.336027e-03	0.0	6.449375e-01	-5.947833e-02	0.0	8.244939e-01	-3.842106e-02	0.0	7.997632e-01	-4.246746e-02	0.0	3.482204e-01	8.660152e-02	0.0	8.478910e-01	-3.434813e-02	0.0	2.468390e-01	7.862192e-02	0.0	8.698983e-01	-3.032503e-02	0.0	1.001408e-02	2.079824e-02	0.0	8.904116e-01	-2.642047e-02	0.0	7.722818e-02	-4.682321e-02	0.0	9.093595e-01	-2.267674e-02	0.0	-1.865007e-03	-3.138557e-03	0.0	9.422484e-01	-1.580904e-02	0.0	9.266631e-01	-1.912583e-02	0.0	1.806769e-02	-2.637803e-02	0.0	4.256782e-01	-6.623083e-02	0.0	8.590773e-01	-3.232303e-02	0.0	9.560748e-01	-1.276843e-02	0.0	9.782290e-01	-7.589010e-03	0.0	9.680882e-01	-1.002215e-02	0.0	1.584746e-01	-5.900398e-02	0.0	9.000881e-01	-2.452666e-02	0.0	7.604299e-01	-4.820093e-02	0.0	9.971132e-01	-2.058079e-03	0.0	5.988429e-01	-6.197001e-02	0.0	4.413590e-01	-6.604490e-02	0.0	5.361230e-01	-6.418097e-02	0.0	4.728882e-01	-6.557080e-02	0.0	5.045102e-01	-6.495629e-02	0.0	4.886866e-01	-6.528085e-02	0.0	1.251652e-01	-5.514410e-02	0.0	2.799454e-02	-3.148915e-02	0.0	3.945492e-01	-6.649285e-02	0.0	4.640172e-02	-3.855324e-02	0.0	4.100682e-01	-6.638196e-02	0.0	3.187978e-01	-6.636792e-02	0.0	3.486567e-01	-6.657206e-02	0.0	3.367005e-02	-3.391128e-02	0.0	2.896281e-01	-6.592628e-02	0.0	9.346743e-01	-1.743395e-02	0.0	1.470184e-01	-5.780948e-02	0.0	1.948400e-01	-6.200962e-02	0.0	8.600599e-02	-4.867547e-02	0.0	1.048018e-01	-5.210645e-02	0.0	5.676108e-01	-6.321237e-02	0.0	1.702734e-01	-6.010386e-02	0.0	6.143295e-01	-6.122907e-02	0.0	8.803501e-01	-2.835590e-02	0.0	2.280418e-02	-2.897635e-02	0.0	9.951875e-01	-2.803889e-03	0.0	6.796488e-03	-1.820110e-02	0.0	1.798544e-02	2.626178e-02	0.0	9.182203e-01	-2.087471e-02	0.0	9.49388
[...]
POINT_DATA 5233

SCALARS Conservative_1 float 1
LOOKUP_TABLE default
1.739025e-02	8.064616e-03	6.371248e-03	5.146262e-03	4.364485e-03	3.778173e-03	3.320316e-03	2.956514e-03	2.666083e-03	2.433560e-03	2.248044e-03	2.101493e-03	1.987114e-03	1.899794e-03	1.834911e-03	1.787469e-03	1.755488e-03	1.730450e-03	1.712229e-03	1.701410e-03	1.703538e-03	1.713308e-03	1.732908e-03	1.764534e-03	1.804538e-03	1.856538e-03	1.913919e-03	1.979788e-03	2.046752e-03	2.114135e-03	2.179144e-03	2.233829e-03	2.281877e-03	2.311365e-03	2.329852e-03	2.328260e-03	2.314687e-03	2.282599e-03	2.240645e-03	2.183459e-03	2.121103e-03	2.048706e-03	1.975607e-03	1.897575e-03	1.822604e-03	1.746953e-03	1.676651e-03	1.608914e-03	1.547280e-03	1.490382e-03	1.439639e-03	1.393982e-03	1.353386e-03	1.318931e-03	1.287861e-03	1.262612e-03	1.239549e-03	1.220815e-03	1.202908e-03	1.187913e-03	1.172419e-03	1.158195e-03	1.141946e-03	1.125782e-03	1.106162e-03	1.085282e-03	1.059643e-03	1.031247e-03	9.972693e-04	9.588481e-04	9.144387e-04	8.636573e-04	8.065003e-04	7.414493e-04	6.690220e-04	5.880492e-04	4.975619e-04	3.979392e-04	2.874448e-04	1.660974e-04	3.217872e-05	-1.146115e-04	-2.757466e-04	-4.522077e-04	-6.459350e-04	-8.575686e-04	-1.089832e-03	-1.343111e-03	-1.619255e-03	-1.917676e-03	-2.236406e-03	-2.561530e-03	-2.894472e-03	-3.232916e-03	-3.367604e-03	-3.118967e-03	-2.836623e-03	-2.639127e-03	-2.262682e-03	-1.889561e-03	-1.569719e-03	-7.436621e-04	2.547754e-04	2.929888e-04	1.132510e-03	4.784260e-03	8.719336e-03	9.939980e-03	9.046152e-03	7.796796e-03	6.786392e-03	5.906709e-03	5.089255e-03	4.354622e-03	3.711228e-03	3.162285e-03	2.695033e-03	2.292477e-03	1.950278e-03	1.653163e-03	1.390289e-03	1.151294e-03	9.249156e-04	7.119506e-04	5.176248e-04	3.425919e-04	1.858049e-04	4.060484e-05	-9.450614e-05	-2.233529e-04	-3.429475e-04	-4.546426e-04	-5.537493e-04	-6.406765e-04	-7.165240e-04	-7.842219e-04	-8.490074e-04	-9.013778e-04	-9.353645e-04	-9.267515e-04	-8.768475e-04	-7.531619e-04	-5.135502e-04	-1.509720e-04	1.881392e-04	3.508387e-04	3.360262e-04	2.431459e-04	1.459895e-04	4.956286e-05	-4.853790e-05	-1.587710e-04	-2.714317e-04	-3.893642e-04	-5.124201e-04	-6.351603e-04	-7.662024e-04	-8.941014e-04	-1.023232e-03	-1.153044e-03	-1.278607e-03	-1.406469e-03	-1.527562e-03	-1.650581e-03	-1.765607e-03	-1.882183e-03	-1.990544e-03	-2.099942e-03	-2.201148e-03	-2.303564e-03	-2.398526e-03	-2.495558e-03	-2.584800e-03	-2.676763e-03	-2.765778e-03	-2.853661e-03	-2.942371e-03	-3.030879e-03	-3.126459e-03	-3.225489e-03	-3.338069e-03	-3.453805e-03	-3.573272e-03	-3.696113e-03	-3.834316e-03	-3.987028e-03	-4.160460e-03	-4.354595e-03	-4.574913e-03	-4.824747e-03	-5.111201e-03	-5.441179e-03	-5.825795e-03	-6.277276e-03	-6.815089e-03	-7.462943e-03	-8.416701e-03	-9.257751e-03	-1.631119e-02	-1.119988e-04	-1.156426e-05	-1.137950e-05	-1.104166e-05	-1.067385e-05	-1.016318e-05	-9.515938e-06	-8.663474e-06	-7.556881e-06	-6.100849e-06	-4.551207e-06	-2.573087e-06	-1.037218e-07	2.733634e-06	5.583862e-06	7.719632e-06	9.312894e-06	1.020256e-05	1.040389e-05	1.016420e-05	9.890695e-06	9.844873e-06	8.369689e-06	1.005373e-05	1.915816e-05	1.256912e-05	1.118981e-05	1.415075e-05	1.235346e-05	2.215549e-06	2.429165e-06	2.474490e-06	1.887280e-06	1.544077e-06	9.080853e-07	8.159949e-08	-9.669898e-07	-1.872044e-06	-3.191146e-06	-4.172856e-06	-5.600281e-06	-7.225233e-06	-8.461978e-06	-9.494814e-06	-1.027764e-05	-1.086799e-05	-1.129086e-05	-1.156600e-05	-1.168616e-05	-1.166023e-05	-1.168987e-05	-4.930580e-04	1.954318e-03	6.170683e-04	-1.203230e-03	1.076663e-03	1.313168e-02	9.041505e-03	1.977886e-03	2.031816e-03	-6.950297e-04	2.042571e-03	-2.493940e-04	4.305755e-03	3.667121e-03	-3.810448e-04	2.063017e-03	-1.811770e-03	3.195145e-03	2.835972e-03	-2.689532e-03	1.902730e-03	1.785351e-03	1.884543e-03	-1.604276e-04	1.701630e-03	5.431514e-05	1.648572e-03	7.883668e-03	1.636797e-03	-1.787467e-04	1.666995e-03	-2.451460e-03	1.781455e-03	1.709256e-03	-2.111749e-03	1.146657e-03	1.670035e-03	1.920518e-03	2.555738e-03	2.161858e-03	6.178966e-04	1.647707e-03	2.016372e-03	6.584241e-03	1.713131e-03	1.177356e-03	1.454772e-03	1.251043e-03	1.344042e-03	1.295463e-03	3.918507e-04	-1.562873e-03	1.096758e-03	-8.686976e-04	1.120538e-03	1.010363e-03	1.041609e-03	-1.312945e-03	9.772895e-04	1.739708e-03	5.510195e-04	7.777736e-04	-4.193269e-05	1.960891e-04	1.580033e-03	6.780011e-04	1.780184e-03	1.636719e-03	-1.829506e-03	5.211653e-03	-2.970475e-03	7.530492e-03	1.687693e-03	1.840513e-03	2.335225e-03	-1.960785e-04	1.739550e-03	9.134178e-04	1.516440e-03	2.059954e-03	1.933992e-03	2.989745e-04	8.547894e-04	1.647001e-03	1.999256e-03	-6.729885e-04	-3.196541e-03	-2.400570e-03	1.057954e-03	7.309486e-04	1.823495e-02	8.864776e-04	8.287197e-05	9.938807e-04	9.377396e-04	1.211801e-03	2.054723e-03	-1.462320e-03	-2.886823e-03	1.183537e-04	-2.084244e-03	6.006022e-03	3.597379e-03	4.690059e-03	1.497154e-03	5.715339e-04	-8.799888e-03	2.273111e-04	4.907618e-04	-4.676891e-03	-4.225167e-03	-3.006488e-03	4.140362e-04	6.014165e-04	1.557088e-04	-3.477802e-03	-3.242986e-03	2.449516e-03	-4.956015e-03	-4.039118e-03	-3.728967e-03	1.923098e-03	3.155286e-03	-1.211900e-04	-1.289923e-05	6.784629e-04	-1.931764e-04	5.555193e-04	4.047133e-04	9.593057e-04	1.303858e-03	-6.554591e-04	4.358728e-04	2.247334e-04	-9.314214e-04	-1.193714e-04	-1.717192e-03	-1.466311e-03	-2.178286e-03	-1.954481e-03	-2.595453e-03	-2.391956e-03	-3.121936e-03	-2.796690e-03	-3.875607e-03	-3.362589e-03	-4.435609e-03	-2.696446e-03	-2.899730e-03	-2.284908e-03	-2.493485e-03	-1.836381e-03	-2.066772e-03	-1.334893e-03	-1.592098e-03	-7.928589e-04	-1.066964e-03	2.564087e-06	-5.178436e-04	3.252866e-04	1.340346e-04	8.121467e-04	5.530188e-04	4.108046e-03	1.123584e-03	8.328311e-03	5.332337e-03	8.190794e-04	1.140272e-03	2.025617e-03	1.833663e-03	1.025481e-03	1.397572e-03	-3.460969e-04	6.706949e-03	4.926222e-03	2.169074e-03	2.775228e-03	-7.170431e-05	1.702481e-03	-5.284492e-03	-5.676294e-03	-1.642850e-04	-6.160047e-03	-6.777361e-03	-1.992020e-04	-5.073443e-05	-3.599571e-03	-1.893558e-02	-1.084430e-02	-1.404568e-02	1.842776e-03	-1.081777e-03	-7.606803e-03	3.251562e-04	-3.149411e-03	-2.684041e-03	-3.288757e-04	4.757141e-04	9.582357e-04	2.930571e-03	-8.884702e-04	-1.454431e-03	8.132427e-04	1.787278e-03	1.571195e-03	-2.725810e-03	1.158634e-04	1.763689e-03	1.740720e-03	3.438445e-03	8.669496e-04	1.555093e-03	1.606205e-03	-1.167742e-04	-2.693878e-03	6.804114e-04	-2.247080e-03	1.910559e-03	4.322822e-04	1.805663e-03	1.686829e-03	1.039743e-03	-2.431720e-04	9.373973e-04	1.536388e-03	1.707934e-03	4.713701e-03	6.414413e-03	-7.459012e-04	-2.404711e-03	2.035608e-03	-8.881030e-04	1.282136e-03	-2.729351e-03	-5.900815e-03	5.410126e-04	5.768262e-04	-3.856194e-03	-2.838482e-03	-6.486155e-03	-4.032367e-03	-5.052757e-03	7.086252e-04	4.867041e-04	7.818387e-04	2.222463e-03	1.727038e-03	6.416404e-04	6.641835e-03	1.550259e-03	3.994478e-03	-4.464858e-03	-7.239920e-03	-2.947699e-03	4.935036e-04	-7.413667e-03	-9.450561e-03	-8.281645e-03	1.579846e-03	-6.192087e-04	-2.948954e-03	-2.253101e-03	-1.987618e-03	-1.993421e-03	4.763970e-03	-5.331377e-04	7.101463e-03	4.769388e-03	9.194233e-04	1.299534e-03	3.004629e-03	1.530850e-03	-2.486541e-05	4.003373e-03	-2.519822e-03	1.009186e-03	9.762301e-04	1.576266e-03	5.355882e-04	1.538454e-03	1.530078e-03	-3.819124e-04	1.550430e-03	1.600136e-03	1.733900e-03	-1.507059e-03	1.810216e-03	2.038800e-03	2.672190e-03	2.849055e-04	1.789519e-03	1.769751e-03	5.838945e-03	1.073238e-03	1.110501e-03	1.152896e-03	-1.745152e-03	9.581346e-04	9.831718e-04	8.826549e-04	-1.073066e-03	1.632547e-03	1.676001e-03	3.624001e-04	-1.189298e-06	1.355975e-03	1.526840e-03	2.202140e-03	2.408446e-03	1.808879e-03	1.806519e-03	1.033429e-04	1.994429e-04	1.411262e-03	1.471010e-03	-8.789082e-04	-6.985107e-04	-2.493670e-03	9.001941e-04	9.174301e-04	5.493968e-04	5.983250e-04	7.134910e-04	7.436953e-04	8.326718e-04	8.495187e-04	7.694165e-04	-1.804481e-03	-3.044186e-03	4.439729e-03	-5.431706e-03	4.772014e-04	6.691558e-04	7.414811e-04	7.954424e-04	-4.733308e-03	-4.234088e-03	-3.308131e-03	8.271931e-04	8.592199e-04	9.650074e-04	-3.183933e-03	-3.698381e-03	3.238196e-03	3.593232e-03	6.416166e-04	5.854148e-04	1.410079e-03	1.700961e-03	1.862015e-03	-1.946342e-03	-1.443179e-03	-1.311140e-03	-1.828493e-03	-2.294933e-03	-3.063378e-03	-2.622711e-03	-2.513401e-03	-2.179411e-03	-2.067001e-03	-1.702235e-03	-1.576944e-03	-1.171295e-03	-1.033128e-03	-5.982887e-04	-4.540982e-04	2.436431e-04	3.652313e-04	-3.077070e-04	-1.637019e-04	8.638218e-04	9.570770e-04	1.056319e-03	1.165744e-03	6.856482e-03	4.922710e-03	5.423185e-03	1.674197e-03	1.637707e-03	1.198227e-03	1.248402e-03	-3.637316e-04	5.921006e-03	2.430662e-03	2.663642e-03	4.781891e-04	5.008042e-04	8.301817e-04	6.649801e-04	-3.559268e-03	-3.428989e-03	1.585050e-03	1.636168e-03	-1.282227e-03	-2.906103e-03	7.933787e-04	-2.533955e-03	8.134162e-04	6.779292e-04	1.529382e-03	1.114757e-03	1.459481e-03	-5.769954e-03	-5.347376e-03	-3.971153e-03	-2.825965e-05	-6.225725e-03	-1.174492e-02	-1.094092e-02	5.172876e-03	-1.492989e-03	-1.876844e-03	-1.907959e-03	-1.909903e-04	1.495531e-03	3.312231e-03	4.004014e-04	9.590801e-03	-2.702888e-03	1.574143e-03	-2.847701e-03	1.583634e-03	-2.097255e-03	1.400794e-03	-2.516124e-03	7.358050e-04	1.408227e-03	1.553099e-03	3.734579e-03	-2.316055e-03	-4.679839e-03	7.521640e-04	-3.625743e-03	-4.785202e-04	-6.838126e-03	8.529815e-04	1.080436e-03	1.135910e-03	1.830308e-03	3.388362e-03	-1.177279e-02	-2.697592e-03	-1.093109e-03	5.638731e-03	-1.523737e-03	1.860794e-03	-3.060002e-04	-2.101627e-03	3.143705e-04	9.193987e-04	-1.656525e-03	4.018829e-03	-2.202590e-03	-1.728664e-03	-6.284309e-04	-4.989647e-03	-3.789493e-03	-2.747161e-03	-2.638215e-03	1.054584e-03	1.037684e-03	1.269918e-03	2.532600e-03	1.492888e-03	1.527746e-03	5.095262e-04	5.330711e-03	1.956486e-03	-4.409395e-03	-7.708594e-03	1.795153e-03	-7.412463e-04	-2.845569e-03	-2.349757e-03	-1.445550e-03	8.275747e-03	9.551599e-03	1.997537e-03	2.936048e-03	2.649289e-04	8.893584e-04	1.186526e-03	1.439783e-03	1.420177e-03	1.399290e-03	1.404585e-03	-5.701135e-04	-4.325886e-04	1.413655e-03	1.433725e-03	1.663322e-03	1.750432e-03	2.628323e-03	1.568249e-03	1.555560e-03	4.318463e-03	9.543156e-04	9.882819e-04	8.349658e-04	8.616946e-04	-1.246582e-03	1.539916e-03	1.593678e-03	1.787576e-04	2.496936e-04	1.163557e-03	1.211656e-03	2.165667e-03	2.374501e-03	1.590451e-03	1.586329e-03	-8.533194e-05	1.151775e-05	1.001449e-04	1.263052e-03	1.312296e-03	-1.059089e-03	-8.829301e-04	-7.188939e-04	7.527330e-04	7.729327e-04	7.911233e-04	3.715809e-04	4.228429e-04	4.698430e-04	5.473065e-04	5.780237e-04	6.989453e-04	7.164061e-04	6.084826e-04	4.290594e-03	9.311428e-04	9.890575e-04	-4.176920e-03	1.023033e-03	1.049363e-03	1.093908e-03	1.314509e-03	-3.091857e-03	3.666660e-03	3.972053e-03	1.134845e-03	1.202996e-03	2.087982e-03	2.224870e-03	2.372978e-03	-1.204726e-03	-2.973496e-03	-2.855427e-03	-2.532576e-03	-2.421582e-03	-2.313475e-03	-2.081393e-03	-1.971858e-03	-1.853391e-03	-1.604756e-03	-1.475041e-03	-1.342123e-03	-1.065046e-03	-9.219883e-04	-7.759739e-04	-3.290275e-04	5.263698e-04	6.440957e-04	-1.785761e-04	-2.987919e-05	1.159010e-04	1.343979e-03	1.424078e-03	1.510279e-03	1.607501e-03	1.712549e-03	4.616893e-03	4.941093e-03	1.509101e-03	1.485664e-03	1.459918e-03	1.026355e-03	1.071475e-03	5.249612e-03	5.508884e-03	2.711200e-03	2.910220e-03	3.136485e-03	1.027425e-03	1.404969e-03	1.380665e-03	1.258423e-03	-3.480167e-03	-3.343302e-03	-3.217656e-03	1.362907e-03	1.409172e-03	1.454584e-03	6.334916e-04	6.581793e-04	-2.520221e-03	-2.586416e-04	-6.170906e-03	-4.519572e-03	1.021407e-03	-1.886715e-03	5.460307e-03	1.350241e-03	1.393999e-03	-1.375855e-03	-5.419195e-03	1.023932e-03	-2.642217e-03	4.260435e-03	-2.457645e-03	-3.690270e-03	-5.741925e-03	-1.109153e-03	-2.853837e-04	-6.270119e-04	-5.690304e-03	2.729615e-03	1.374136e-03	2.078099e-04	-1.750681e-03	7.109437e-04	-3.626272e-04	7.898329e-04	5.621758e-04	-4.787548e-03	5.974097e-04	-3.529788e-03	-3.384720e-03	-1.539506e-03	2.286091e-03	1.483866e-03	2.683118e-03	3.763855e-03	1.280350e-03	-8.000189e-03	-5.087323e-03	3.576103e-03	1.892927e-03	-1.941457e-03	1.400108e-03	-2.583126e-03	1.394475e-03	1.422825e-03	-2.128368e-03	2.956079e-03	-2.305086e-03	-2.023080e-03	9.369823e-04	1.484342e-03	-1.525232e-03	3.245372e-03	-4.273770e-04	-2.551629e-03	1.572085e-03	1.434895e-03	1.445096e-03	1.353238e-03	1.361320e-03	-4.275835e-03	1.676203e-03	2.150883e-04	-2.664841e-03	-2.404033e-03	-1.556614e-03	1.766540e-03	2.436444e-03	4.567008e-04	1.299801e-03	1.284310e-03	1.275568e-03	1.279890e-03	-6.003052e-04	-4.766781e-04	1.285346e-03	1.300509e-03	1.325533e-03	1.573280e-03	1.660459e-03	1.408960e-03	1.376883e-03	3.216476e-03	8.242108e-04	8.595760e-04	7.322355e-04	7.625780e-04	1.443865e-03	1.500950e-03	8.127673e-05	1.430932e-04	1.052495e-03	2.044725e-03	2.226170e-03	1.414983e-03	1.401583e-03	-1.614739e-04	-7.530108e-05	9.799680e-06	1.109993e-03	1.140862e-03	-1.202915e-03	-1.036335e-03	-8.771910e-04	-7.329769e-04	6.226039e-04	6.442898e-04	6.638837e-04	6.872371e-04	2.577676e-04	3.096496e-04	3.510310e-04	3.926258e-04	4.258647e-04	6.037833e-04	5.819158e-04	4.598018e-04	1.097687e-03	-4.059577e-03	-3.865841e-03	1.141726e-03	1.175963e-03	1.209830e-03	1.266739e-03	1.363754e-03	3.983932e-03	4.187823e-03	1.554582e-03	1.625740e-03	2.413695e-03	2.537757e-03	2.671415e-03	2.814184e-03	-2.873572e-03	-2.762003e-03	-2.653135e-03	-2.446285e-03	-2.341776e-03	-2.232737e-03	-2.126813e-03	-1.900008e-03	-1.782433e-03	-1.677468e-03	-1.422971e-03	-1.279684e-03	-1.155983e-03	-1.007010e-03	-8.764246e-04	-7.223574e-04	-5.845751e-04	8.281302e-04	7.067514e-04	-1.289276e-04	1.492332e-05	1.700684e-04	3.159582e-04	1.704961e-03	1.781300e-03	1.866215e-03	1.956985e-03	2.056393e-03	2.168055e-03	4.372311e-03	4.537906e-03	1.348558e-03	1.325870e-03	1.313149e-03	8.894629e-04	9.389515e-04	9.682569e-04	4.676365e-03	4.748373e-03	4.672218e-03	2.970246e-03	3.143100e-03	3.340696e-03	3.550216e-03	1.517948e-03	1.673561e-03	1.720884e-03	1.672290e-03	-2.992716e-03	-3.245942e-03	-3.121696e-03	1.199637e-03	1.226962e-03	1.283422e-03	1.303262e-03	4.876556e-04	5.159472e-04	5.382181e-04	-1.946933e-03	-5.539377e-03	1.638850e-03	-8.686820e-03	-2.100995e-03	1.263463e-03	-3.117070e-04	-2.235190e-03	-4.099213e-03	-2.423131e-03	-1.455515e-03	1.170152e-04	2.638448e-03	2.575872e-03	-5.065127e-04	-1.844908e-03	-2.121902e-03	-2.208389e-03	-2.118883e-03	-2.500679e-03	2.946470e-03	1.857117e-03	1.745750e-03	2.336091e-03	1.303242e-03	1.243033e-03	6.256572e-04	-4.994516e-03	-2.809423e-03	-3.147638e-03	7.766528e-04	9.831704e-04	-1.989656e-04	-1.309989e-03	1.127805e-03	9.071302e-04	1.915256e-03	-4.766521e-03	-4.064661e-04	-9.050357e-03	-4.304096e-03	-2.259403e-03	5.848568e-03	6.481074e-03	1.272300e-03	-1.304432e-03	-2.489545e-03	3.407518e-03	-2.335270e-03	-3.419838e-03	-1.055271e-03	-3.203569e-03	-2.257079e-04	-1.789370e-03	4.998479e-04	4.673291e-04	-4.518841e-03	5.964848e-04	-3.281978e-03	2.154275e-03	1.236727e-03	-1.481434e-03	1.747732e-03	1.719931e-03	1.693134e-03	1.195737e-03	1.433695e-03	3.119699e-04	-2.410639e-03	-1.621562e-03	1.184020e-03	1.188876e-03	1.176376e-03	1.186118e-03	-5.111908e-04	-6.215685e-04	1.179729e-03	1.197390e-03	1.207334e-03	1.226219e-03	1.468181e-03	1.547042e-03	1.257344e-03	2.491204e-03	7.184828e-04	7.428932e-04	6.596825e-04	6.778453e-04	1.347119e-03	1.401754e-03	-6.434714e-07	7.093939e-05	1.868682e-03	2.006110e-03	1.255944e-03	-2.230736e-04	-1.319466e-04	-6.471386e-05	9.848341e-04	-1.153989e-03	-1.004854e-03	-8.668148e-04	-7.402524e-04	5.114372e-04	5.426677e-04	5.545803e-04	5.873571e-04	6.041991e-04	1.794677e-04	2.144391e-04	2.682446e-04	2.946952e-04	3.407074e-04	-3.908854e-03	-3.732727e-03	-3.571074e-03	1.190895e-03	1.232386e-03	1.269352e-03	1.308027e-03	1.358476e-03	3.956003e-03	4.055515e-03	1.753074e-03	1.812503e-03	2.737104e-03	2.866328e-03	3.013211e-03	-2.685246e-03	-2.591958e-03	-2.482178e-03	-2.394393e-03	-2.279599e-03	-2.184107e-03	-2.067023e-03	-1.911607e-03	-1.729060e-03	-1.557292e-03	-1.045155e-03	-7.721625e-04	-4.888956e-04	9.344399e-05	3.769717e-04	1.906892e-03	1.983662e-03	2.087006e-03	2.167289e-03	2.269624e-03	2.386958e-03	2.502286e-03	4.115107e-03	4.150395e-03	1.212523e-03	1.212468e-03	1.198151e-03	7.740693e-04	8.333056e-04	4.153266e-03	4.079027e-03	3.864610e-03	3.159446e-03	3.313444e-03	3.484968e-03	3.655727e-03	3.811740e-03	1.451114e-03	1.624723e-03	1.764261e-03	1.898503e-03	-3.025613e-03	-2.913599e-03	1.062892e-03	1.135399e-03	3.622807e-04	4.031730e-04	4.189901e-04	4.541664e-04	6.639937e-03	-9.114563e-03	-2.022663e-03	-2.086129e-03	1.944796e-03	1.550223e-03	-4.226597e-03	-1.406370e-03	-3.286658e-03	2.845464e-03	1.723743e-03	-2.391332e-03	-1.357389e-03	-1.902464e-03	1.982549e-03	-5.315925e-03	1.171612e-03	-9.729327e-04	-1.773317e-03	1.472816e-03	7.575400e-04	-4.040899e-03	4.073815e-04	1.204791e-03	1.161830e-03	9.606170e-04	-3.498961e-04	7.684950e-05	-2.272861e-03	5.718602e-04	-5.317035e-04	-4.385144e-04	2.902194e-03	-3.717471e-03	-2.677429e-03	-1.760211e-03	2.033642e-03	1.402208e-03	-8.559456e-03	-3.872750e-03	-2.176832e-03	-2.387508e-03	1.831228e-03	1.113335e-03	1.081779e-03	1.208941e-03	-4.436066e-03	-1.780822e-03	-5.503085e-03	-2.332017e-03	5.905207e-03	-1.229350e-03	-2.165828e-03	-2.106337e-03	7.165612e-04	-1.492903e-03	-3.162736e-03	-3.046525e-03	9.055071e-04	1.960615e-03	1.885559e-03	1.096928e-03	3.109616e-04	-4.121643e-04	-1.639182e-03	1.088782e-03	1.091865e-03	-6.344818e-04	1.106654e-03	1.118670e-03	1.339814e-03	1.960780e-03	6.267897e-04	1.240234e-03	1.286222e-03	-2.784425e-05	1.631944e-03	1.112333e-03	1.110785e-03	-2.227244e-04	-1.262875e-04	8.245984e-04	-1.096616e-03	-9.626406e-04	-8.461453e-04	-7.395928e-04	4.525254e-04	4.999033e-04	5.286471e-04	1.646622e-04	2.398218e-04	-3.565705e-03	-3.422085e-03	1.294493e-03	1.380481e-03	3.848247e-03	1.949312e-03	3.092456e-03	-1.526418e-03	-2.476633e-03	-2.275585e-03	-2.068930e-03	-1.870616e-03	-1.696174e-03	-1.319267e-03	-1.070919e-03	-8.110491e-04	-5.451940e-04	-2.710354e-04	7.616513e-06	2.818736e-04	5.236329e-04	2.123118e-03	2.315719e-03	2.493707e-03	2.603354e-03	2.736587e-03	3.804889e-03	3.744116e-03	1.101512e-03	1.102732e-03	1.087043e-03	6.626534e-04	6.989115e-04	3.654411e-03	3.485275e-03	3.183914e-03	2.718879e-03	3.244488e-03	3.387772e-03	3.532691e-03	3.667284e-03	3.763469e-03	3.869461e-03	1.549316e-03	1.780628e-03	-2.952228e-03	-2.825513e-03	8.941799e-04	1.019254e-03	1.065265e-03	3.045779e-04	3.589601e-04	-4.536783e-03	5.192187e-03	5.160247e-03	-5.918906e-03	-8.697323e-04	-4.020141e-03	-3.589021e-03	2.415880e-03	-1.898713e-03	-1.609721e-03	3.235909e-03	1.994745e-03	2.510795e-04	-1.666191e-03	-2.331278e-03	-3.244108e-03	9.936943e-04	1.787967e-03	-5.051746e-03	1.010649e-03	-1.370236e-03	3.605347e-03	9.245630e-04	-1.821400e-03	4.689113e-04	1.093762e-03	8.876630e-04	7.084835e-04	1.270095e-03	1.318802e-03	-1.260646e-03	-1.149407e-03	-6.795915e-03	-3.642248e-03	-3.793676e-03	-3.021243e-03	2.051166e-03	5.984262e-04	9.680986e-04	-6.337412e-04	-7.788887e-03	-7.868032e-03	-2.214104e-03	1.223742e-03	-3.129065e-03	1.203786e-04	1.378280e-03	-1.314405e-03	-1.715720e-03	6.495857e-04	-2.206618e-03	-5.491209e-04	-4.644895e-04	-3.502235e-03	-2.019171e-03	1.184327e-03	1.439535e-03	9.869958e-04	-2.331213e-03	3.710338e-03	-7.292898e-04	-2.008902e-03	-1.929910e-03	9.633269e-04	-1.493318e-03	-2.921041e-03	7.841681e-04	2.013722e-03	3.871722e-04	-3.609848e-04	-8.835963e-04	9.787802e-04	9.920166e-04	1.034491e-03	1.068840e-03	1.571066e-03	5.166907e-04	1.119274e-03	1.148932e-03	4.329079e-04	9.827199e-04	9.802377e-04	9.946546e-04	-3.677829e-04	-2.601672e-04	-1.735097e-04	-1.026472e-03	3.396129e-04	3.890645e-04	-7.728333e-05	1.744454e-05	9.341521e-04	-3.370044e-03	1.121843e-03	1.235419e-03	3.077137e-03	-2.433904e-03	-2.233215e-03	-1.499293e-03	-2.028755e-03	-1.835366e-03	-1.661329e-03	-1.324201e-03	-1.114081e-03	-8.778101e-04	-6.314133e-04	-3.784440e-04	-1.179201e-04	1.432558e-04	2.032110e-03	2.119515e-03	2.305865e-03	2.507391e-03	2.695826e-03	2.899831e-03	3.443676e-03	3.313125e-03	9.902120e-04	9.753861e-04	5.654564e-04	6.030530e-04	3.167678e-03	2.951967e-03	2.614791e-03	2.160186e-03	1.590294e-03	3.229428e-03	3.361