# vtk DataFile Version 3.0
vtk output
ASCII
DATASET UNSTRUCTURED_GRID
POINTS 5233 float
9.997500e-01	-3.632909e-05	0.0	9.990000e-01	-1.452618e-04	0.0	9.977600e-01	-3.252008e-04	0.0	9.960200e-01	-5.774943e-04	0.0	9.937800e-01	-9.022942e-04	0.0	9.910500e-01	-1.298763e-03	0.0	9.878400e-01	-1.766726e-03	0.0	9.841300e-01	-2.311194e-03	0.0	9.799500e-01	-2.930640e-03	0.0	9.752800e-01	-3.631444e-03	0.0	9.701500e-01	-4.412625e-03	0.0	9.645400e-01	-5.280292e-03	0.0	9.584700e-01	-6.233365e-03	0.0	9.519400e-01	-7.272227e-03	0.0	9.449600e-01	-8.393908e-03	0.0	9.375400e-01	-9.593773e-03	0.0	9.296900e-01	-1.086609e-02	0.0	9.214000e-01	-1.220804e-02	0.0	9.127000e-01	-1.361074e-02	0.0	9.035800e-01	-1.507272e-02	0.0	8.940600e-01	-1.658877e-02	0.0	8.841500e-01	-1.815610e-02	0.0	8.738500e-01	-1.977361e-02	0.0	8.631800e-01	-2.143627e-02	0.0	8.521600e-01	-2.313752e-02	0.0	8.407700e-01	-2.487471e-02	0.0	8.290500e-01	-2.663345e-02	0.0	8.170100e-01	-2.840162e-02	0.0	8.046400e-01	-3.016792e-02	0.0	7.919700e-01	-3.191393e-02	0.0	7.790100e-01	-3.362378e-02	0.0	7.657800e-01	-3.528073e-02	0.0	7.522800e-01	-3.687177e-02	0.0	7.385200e-01	-3.838440e-02	0.0	7.245300e-01	-3.980643e-02	0.0	7.103200e-01	-4.113073e-02	0.0	6.958900e-01	-4.235375e-02	0.0	6.812700e-01	-4.347212e-02	0.0	6.664700e-01	-4.448693e-02	0.0	6.515000e-01	-4.540154e-02	0.0	6.363800e-01	-4.622067e-02	0.0	6.211300e-01	-4.695082e-02	0.0	6.057600e-01	-4.760016e-02	0.0	5.902800e-01	-4.817747e-02	0.0	5.747100e-01	-4.869148e-02	0.0	5.590600e-01	-4.915119e-02	0.0	5.433600e-01	-4.956464e-02	0.0	5.276100e-01	-4.993996e-02	0.0	5.118400e-01	-5.028359e-02	0.0	4.960500e-01	-5.060149e-02	0.0	4.802700e-01	-5.089775e-02	0.0	4.645100e-01	-5.117554e-02	0.0	4.487800e-01	-5.143670e-02	0.0	4.331100e-01	-5.168146e-02	0.0	4.175000e-01	-5.190932e-02	0.0	4.019700e-01	-5.211839e-02	0.0	3.865400e-01	-5.230586e-02	0.0	3.712300e-01	-5.246816e-02	0.0	3.560400e-01	-5.260130e-02	0.0	3.409900e-01	-5.270061e-02	0.0	3.261100e-01	-5.276113e-02	0.0	3.114000e-01	-5.277790e-02	0.0	2.968700e-01	-5.274582e-02	0.0	2.825500e-01	-5.265996e-02	0.0	2.684500e-01	-5.251559e-02	0.0	2.545700e-01	-5.230801e-02	0.0	2.409400e-01	-5.203324e-02	0.0	2.275700e-01	-5.168749e-02	0.0	2.144700e-01	-5.126729e-02	0.0	2.016600e-01	-5.076993e-02	0.0	1.891400e-01	-5.019238e-02	0.0	1.769300e-01	-4.953284e-02	0.0	1.650400e-01	-4.878952e-02	0.0	1.534900e-01	-4.796177e-02	0.0	1.422900e-01	-4.704883e-02	0.0	1.314400e-01	-4.604934e-02	0.0	1.209500e-01	-4.496296e-02	0.0	1.108500e-01	-4.379208e-02	0.0	1.011300e-01	-4.253503e-02	0.0	9.181000e-02	-4.119389e-02	0.0	8.290000e-02	-3.976997e-02	0.0	7.440000e-02	-3.826304e-02	0.0	6.633000e-02	-3.667657e-02	0.0	5.869000e-02	-3.501058e-02	0.0	5.149000e-02	-3.326708e-02	0.0	4.474000e-02	-3.144844e-02	0.0	3.844000e-02	-2.955433e-02	0.0	3.260000e-02	-2.758711e-02	0.0	2.723000e-02	-2.554977e-02	0.0	2.232000e-02	-2.343708e-02	0.0	1.790000e-02	-2.126113e-02	0.0	1.395000e-02	-1.901092e-02	0.0	1.049000e-02	-1.669561e-02	0.0	7.520000e-03	-1.431461e-02	0.0	5.040000e-03	-1.186637e-02	0.0	3.050000e-03	-9.347302e-03	0.0	1.560000e-03	-6.769269e-03	0.0	5.600000e-04	-4.108233e-03	0.0	6.000000e-05	-1.363608e-03	0.0	0.000000e+00	0.000000e+00	0.0	6.000000e-05	1.350236e-03	0.0	5.600000e-04	4.050826e-03	0.0	1.560000e-03	6.663226e-03	0.0	3.050000e-03	9.195473e-03	0.0	5.040000e-03	1.167583e-02	0.0	7.520000e-03	1.409653e-02	0.0	1.049000e-02	1.646478e-02	0.0	1.395000e-02	1.878581e-02	0.0	1.790000e-02	2.106403e-02	0.0	2.232000e-02	2.329392e-02	0.0	2.723000e-02	2.549065e-02	0.0	3.260000e-02	2.764558e-02	0.0	3.844000e-02	2.976800e-02	0.0	4.474000e-02	3.185849e-02	0.0	5.149000e-02	3.391797e-02	0.0	5.869000e-02	3.595015e-02	0.0	6.633000e-02	3.795531e-02	0.0	7.440000e-02	3.993367e-02	0.0	8.290000e-02	4.188739e-02	0.0	9.181000e-02	4.381361e-02	0.0	1.011300e-01	4.571359e-02	0.0	1.108500e-01	4.758588e-02	0.0	1.209500e-01	4.942683e-02	0.0	1.314400e-01	5.123782e-02	0.0	1.422900e-01	5.301272e-02	0.0	1.534900e-01	5.474871e-02	0.0	1.650400e-01	5.644398e-02	0.0	1.769300e-01	5.809472e-02	0.0	1.891400e-01	5.969553e-02	0.0	2.016600e-01	6.124223e-02	0.0	2.144700e-01	6.272926e-02	0.0	2.275700e-01	6.415328e-02	0.0	2.409400e-01	6.550849e-02	0.0	2.545700e-01	6.679020e-02	0.0	2.684500e-01	6.799357e-02	0.0	2.825500e-01	6.911218e-02	0.0	2.968700e-01	7.014214e-02	0.0	3.114000e-01	7.107860e-02	0.0	3.261100e-01	7.191555e-02	0.0	3.409900e-01	7.264840e-02	0.0	3.560400e-01	7.327286e-02	0.0	3.712300e-01	7.378330e-02	0.0	3.865400e-01	7.417483e-02	0.0	4.019700e-01	7.444303e-02	0.0	4.175000e-01	7.458295e-02	0.0	4.331100e-01	7.458992e-02	0.0	4.487800e-01	7.445955e-02	0.0	4.645100e-01	7.418745e-02	0.0	4.802700e-01	7.376991e-02	0.0	4.960500e-01	7.320341e-02	0.0	5.118400e-01	7.248482e-02	0.0	5.276100e-01	7.161270e-02	0.0	5.433600e-01	7.058503e-02	0.0	5.590600e-01	6.940265e-02	0.0	5.747100e-01	6.806549e-02	0.0	5.902800e-01	6.657731e-02	0.0	6.057600e-01	6.494175e-02	0.0	6.211300e-01	6.316504e-02	0.0	6.363800e-01	6.125402e-02	0.0	6.515000e-01	5.921698e-02	0.0	6.664700e-01	5.706516e-02	0.0	6.812700e-01	5.481151e-02	0.0	6.958900e-01	5.246892e-02	0.0	7.103200e-01	5.005129e-02	0.0	7.245300e-01	4.757686e-02	0.0	7.385200e-01	4.505941e-02	0.0	7.522800e-01	4.251466e-02	0.0	7.657800e-01	3.996213e-02	0.0	7.790100e-01	3.741749e-02	0.0	7.919700e-01	3.489399e-02	0.0	8.046400e-01	3.240819e-02	0.0	8.170100e-01	2.997405e-02	0.0	8.290500e-01	2.760884e-02	0.0	8.407700e-01	2.532127e-02	0.0	8.521600e-01	2.312328e-02	0.0	8.631800e-01	2.103157e-02	0.0	8.738500e-01	1.905016e-02	0.0	8.841500e-01	1.718895e-02	0.0	8.940600e-01	1.545535e-02	0.0	9.035800e-01	1.385019e-02	0.0	9.127000e-01	1.237271e-02	0.0	9.214000e-01	1.102010e-02	0.0	9.296900e-01	9.781662e-03	0.0	9.375400e-01	8.650401e-03	0.0	9.449600e-01	7.612208e-03	0.0	9.519400e-01	6.656126e-03	0.0	9.584700e-01	5.772587e-03	0.0	9.645400e-01	4.954359e-03	0.0	9.701500e-01	4.195689e-03	0.0	9.752800e-01	3.496291e-03	0.0	9.799500e-01	2.852720e-03	0.0	9.841300e-01	2.270023e-03	0.0	9.878400e-01	1.747228e-03	0.0	9.910500e-01	1.290667e-03	0.0	9.937800e-01	8.994899e-04	0.0	9.960200e-01	5.767420e-04	0.0	9.977600e-01	3.250644e-04	0.0	9.990000e-01	1.452495e-04	0.0	9.997500e-01	3.632890e-05	0.0	1.000000e+00	0.000000e+00	0.0	1.984229e+01	2.506660e+00	0.0	1.937166e+01	4.973800e+00	0.0	1.859553e+01	7.362490e+00	0.0	1.752613e+01	9.635070e+00	0.0	1.618034e+01	1.175571e+01	0.0	1.457937e+01	1.369094e+01	0.0	1.274848e+01	1.541027e+01	0.0	1.071654e+01	1.688656e+01	0.0	8.515590e+00	1.809654e+01	0.0	6.180340e+00	1.902113e+01	0.0	3.747630e+00	1.964575e+01	0.0	1.255810e+00	1.996053e+01	0.0	-1.255810e+00	1.996053e+01	0.0	-3.747630e+00	1.964574e+01	0.0	-6.180340e+00	1.902113e+01	0.0	-8.515590e+00	1.809654e+01	0.0	-1.071654e+01	1.688656e+01	0.0	-1.274848e+01	1.541026e+01	0.0	-1.457937e+01	1.369094e+01	0.0	-1.618034e+01	1.175570e+01	0.0	-1.752613e+01	9.635070e+00	0.0	-1.859553e+01	7.362490e+00	0.0	-1.937166e+01	4.973800e+00	0.0	-1.984229e+01	2.506660e+00	0.0	-2.000000e+01	0.000000e+00	0.0	-1.984229e+01	-2.506670e+00	0.0	-1.937166e+01	-4.973800e+00	0.0	-1.859553e+01	-7.362490e+00	0.0	-1.752613e+01	-9.635080e+00	0.0	-1.618034e+01	-1.175571e+01	0.0	-1.457937e+01	-1.369094e+01	0.0	-1.274848e+01	-1.541027e+01	0.0	-1.071653e+01	-1.688656e+01	0.0	-8.515580e+00	-1.809654e+01	0.0	-6.180340e+00	-1.902113e+01	0.0	-3.747620e+00	-1.964575e+01	0.0	-1.255810e+00	-1.996053e+01	0.0	1.255810e+00	-1.996053e+01	0.0	3.747630e+00	-1.964574e+01	0.0	6.180340e+00	-1.902113e+01	0.0	8.515590e+00	-1.809654e+01	0.0	1.071654e+01	-1.688656e+01	0.0	1.274848e+01	-1.541026e+01	0.0	1.457937e+01	-1.369094e+01	0.0	1.618034e+01	-1.175570e+01	0.0	1.752614e+01	-9.635070e+00	0.0	1.859553e+01	-7.362490e+00	0.0	1.937166e+01	-4.973790e+00	0.0	1.984229e+01	-2.506660e+00	0.0	2.000000e+01	0.000000e+00	0.0	6.093892e-02	-4.285144e-02	0.0	6.600410e-01	-5.844939e-02	0.0	4.255297e-01	8.863687e-02	0.0	6.904536e-01	6.677179e-02	0.0	3.791252e-01	-6.656260e-02	0.0	9.994589e-01	-7.258723e-04	0.0	9.985402e-01	-1.320872e-03	0.0	7.738251e-01	-4.634860e-02	0.0	6.897588e-01	-5.606349e-02	0.0	-1.367138e-03	6.233161e-03	0.0	7.467650e-01	-4.997311e-02	0.0	5.838090e-01	8.122916e-02	0.0	9.927651e-01	-3.598793e-03	0.0	9.898616e-01	-4.480982e-03	0.0	5.994275e-01	7.958836e-02	0.0	7.187102e-01	-5.322760e-02	0.0	-1.548094e-03	7.305687e-04	0.0	9.864673e-01	-5.441292e-03	0.0	9.825916e-01	-6.470515e-03	0.0	-1.358171e-03	-6.336027e-03	0.0	6.449375e-01	-5.947833e-02	0.0	8.244939e-01	-3.842106e-02	0.0	7.997632e-01	-4.246746e-02	0.0	3.482204e-01	8.660152e-02	0.0	8.478910e-01	-3.434813e-02	0.0	2.468390e-01	7.862192e-02	0.0	8.698983e-01	-3.032503e-02	0.0	1.001408e-02	2.079824e-02	0.0	8.904116e-01	-2.642047e-02	0.0	7.722818e-02	-4.682321e-02	0.0	9.093595e-01	-2.267674e-02	0.0	-1.865007e-03	-3.138557e-03	0.0	9.422484e-01	-1.580904e-02	0.0	9.266631e-01	-1.912583e-02	0.0	1.806769e-02	-2.637803e-02	0.0	4.256782e-01	-6.623083e-02	0.0	8.590773e-01	-3.232303e-02	0.0	9.560748e-01	-1.276843e-02	0.0	9.782290e-01	-7.589010e-03	0.0	9.680882e-01	-1.002215e-02	0.0	1.584746e-01	-5.900398e-02	0.0	9.000881e-01	-2.452666e-02	0.0	7.604299e-01	-4.820093e-02	0.0	9.971132e-01	-2.058079e-03	0.0	5.988429e-01	-6.197001e-02	0.0	4.413590e-01	-6.604490e-02	0.0	5.361230e-01	-6.418097e-02	0.0	4.728882e-01	-6.557080e-02	0.0	5.045102e-01	-6.495629e-02	0.0	4.886866e-01	-6.528085e-02	0.0	1.251652e-01	-5.514410e-02	0.0	2.799454e-02	-3.148915e-02	0.0	3.945492e-01	-6.649285e-02	0.0	4.640172e-02	-3.855324e-02	0.0	4.100682e-01	-6.638196e-02	0.0	3.187978e-01	-6.636792e-02	0.0	3.486567e-01	-6.657206e-02	0.0	3.367005e-02	-3.391128e-02	0.0	2.896281e-01	-6.592628e-02	0.0	9.346743e-01	-1.743395e-02	0.0	1.470184e-01	-5.780948e-02	0.0	1.948400e-01	-6.200962e-02	0.0	8.600599e-02	-4.867547e-02	0.0	1.048018e-01	-5.210645e-02	0.0	5.676108e-01	-6.321237e-02	0.0	1.702734e-01	-6.010386e-02	0.0	6.143295e-01	-6.122907e-02	0.0	8.803501e-01	-2.835590e-02	0.0	2.280418e-02	-2.897635e-02	0.0	9.951875e-01	-2.803889e-03	0.0	6.796488e-03	-1.820110e-02	0.0	1.798544e-02	2.626178e-02	0.0	9.182203e-01	-2.087471e-02	0.0	9.49388
[...]
POINT_DATA 5233

SCALARS Conservative_1 float 1
LOOKUP_TABLE default
1.360418e-02	6.155316e-03	4.863315e-03	3.902051e-03	3.293437e-03	2.835912e-03	2.479490e-03	2.196725e-03	1.972516e-03	1.794251e-03	1.654005e-03	1.545207e-03	1.462936e-03	1.402736e-03	1.361201e-03	1.333771e-03	1.319209e-03	1.310138e-03	1.306881e-03	1.309437e-03	1.322318e-03	1.340676e-03	1.367310e-03	1.404295e-03	1.448895e-03	1.503949e-03	1.563963e-03	1.631049e-03	1.699236e-03	1.767391e-03	1.833015e-03	1.888885e-03	1.937840e-03	1.969490e-03	1.990257e-03	1.992346e-03	1.982597e-03	1.955479e-03	1.918536e-03	1.867270e-03	1.810618e-03	1.744678e-03	1.677542e-03	1.605955e-03	1.536695e-03	1.466826e-03	1.401644e-03	1.338873e-03	1.281674e-03	1.228939e-03	1.181807e-03	1.139424e-03	1.101825e-03	1.069828e-03	1.041177e-03	1.017781e-03	9.965897e-04	9.792545e-04	9.628190e-04	9.488823e-04	9.345955e-04	9.212725e-04	9.061408e-04	8.909299e-04	8.724997e-04	8.526070e-04	8.283100e-04	8.011140e-04	7.687387e-04	7.320191e-04	6.895416e-04	6.409258e-04	5.861168e-04	5.238070e-04	4.543293e-04	3.765984e-04	2.897618e-04	1.940465e-04	8.790989e-05	-2.871072e-05	-1.574363e-04	-2.985959e-04	-4.536062e-04	-6.233533e-04	-8.097942e-04	-1.013456e-03	-1.237058e-03	-1.480829e-03	-1.746580e-03	-2.033520e-03	-2.339818e-03	-2.652359e-03	-2.970112e-03	-3.285160e-03	-3.425342e-03	-3.233561e-03	-2.967517e-03	-2.712927e-03	-2.249679e-03	-1.798061e-03	-1.401941e-03	-4.197638e-04	7.328505e-04	1.009205e-03	2.411353e-03	6.480949e-03	1.025574e-02	1.109577e-02	1.001481e-02	8.759605e-03	7.780588e-03	6.930810e-03	6.152470e-03	5.456472e-03	4.847134e-03	4.325813e-03	3.875146e-03	3.490259e-03	3.156943e-03	2.863541e-03	2.608878e-03	2.377585e-03	2.169372e-03	1.979869e-03	1.808858e-03	1.657105e-03	1.520631e-03	1.395860e-03	1.286319e-03	1.186824e-03	1.102426e-03	1.026439e-03	9.563006e-04	8.885592e-04	8.208004e-04	7.661338e-04	7.326523e-04	7.399374e-04	7.943520e-04	9.280364e-04	1.144735e-03	1.369294e-03	1.507328e-03	1.524945e-03	1.467107e-03	1.392161e-03	1.314429e-03	1.230271e-03	1.135454e-03	1.025322e-03	9.074106e-04	7.795912e-04	6.494168e-04	5.125000e-04	3.687242e-04	2.234573e-04	7.059243e-05	-8.019072e-05	-2.320896e-04	-3.847757e-04	-5.336757e-04	-6.837992e-04	-8.274914e-04	-9.715751e-04	-1.107908e-03	-1.243880e-03	-1.371528e-03	-1.498168e-03	-1.616353e-03	-1.733601e-03	-1.842959e-03	-1.952115e-03	-2.053203e-03	-2.154593e-03	-2.251953e-03	-2.346335e-03	-2.439369e-03	-2.530258e-03	-2.625217e-03	-2.721638e-03	-2.827123e-03	-2.933296e-03	-3.040773e-03	-3.150279e-03	-3.272101e-03	-3.406305e-03	-3.558276e-03	-3.728816e-03	-3.922624e-03	-4.143115e-03	-4.396148e-03	-4.688184e-03	-5.028493e-03	-5.428469e-03	-5.905149e-03	-6.482896e-03	-7.328156e-03	-8.130310e-03	-1.419076e-02	-7.405229e-04	-8.421463e-06	-8.094862e-06	-7.640767e-06	-7.176845e-06	-6.551652e-06	-5.845554e-06	-4.954037e-06	-3.914059e-06	-2.724424e-06	-1.362561e-06	4.873712e-07	2.719812e-06	5.273822e-06	7.686124e-06	9.282139e-06	1.056997e-05	1.106768e-05	1.105954e-05	1.065297e-05	1.009015e-05	9.574163e-06	8.035629e-06	8.620187e-06	1.481176e-05	1.021159e-05	8.479803e-06	9.783963e-06	7.978318e-06	7.849676e-08	-2.611814e-07	-6.743985e-07	-1.431302e-06	-1.896511e-06	-2.495546e-06	-3.213726e-06	-3.930795e-06	-4.190694e-06	-4.870925e-06	-4.864106e-06	-5.757563e-06	-6.975357e-06	-7.768743e-06	-8.370304e-06	-8.764978e-06	-9.002195e-06	-9.134578e-06	-9.158143e-06	-9.057378e-06	-8.846516e-06	-8.693526e-06	-6.589312e-04	1.669508e-03	1.629311e-03	-5.696127e-04	8.579690e-04	1.027092e-02	7.018148e-03	1.662847e-03	1.737200e-03	-3.814581e-04	1.732834e-03	5.192616e-04	3.257014e-03	2.754627e-03	3.668911e-04	1.759906e-03	-1.702865e-03	2.385032e-03	2.105355e-03	-2.781988e-03	1.623070e-03	1.459116e-03	1.564388e-03	1.523884e-03	1.366768e-03	1.367083e-03	1.301098e-03	8.998328e-03	1.271048e-03	-3.553386e-04	1.274708e-03	-2.477712e-03	1.322914e-03	1.286520e-03	-2.218109e-03	9.235038e-04	1.329532e-03	1.414211e-03	1.888766e-03	1.589442e-03	4.153404e-04	1.269735e-03	1.703671e-03	5.061478e-03	1.449961e-03	9.521343e-04	1.210658e-03	1.020912e-03	1.107599e-03	1.062298e-03	1.964404e-04	-1.690430e-03	8.768424e-04	-1.021433e-03	8.990434e-04	7.952252e-04	8.249417e-04	-1.449748e-03	7.635367e-04	1.300116e-03	3.505204e-04	5.703108e-04	-2.231112e-04	7.030147e-06	1.326999e-03	4.735358e-04	1.511442e-03	1.280993e-03	-1.946975e-03	3.972506e-03	-3.036539e-03	8.289749e-03	1.280291e-03	1.359959e-03	1.720075e-03	2.023585e-04	1.409542e-03	7.018817e-04	1.267931e-03	1.753146e-03	1.616360e-03	1.065550e-04	6.449821e-04	1.388906e-03	1.709231e-03	-8.325999e-04	-3.249761e-03	-2.495307e-03	8.404131e-04	5.249042e-04	1.443420e-02	6.756955e-04	-1.024758e-04	7.795064e-04	7.253946e-04	9.843008e-04	1.755491e-03	-1.269071e-03	-3.001605e-03	9.500928e-04	-2.033187e-03	6.822660e-03	4.569365e-03	5.586303e-03	2.560623e-03	1.672380e-03	-7.621176e-03	1.080919e-03	1.415099e-03	-4.014409e-03	-3.616825e-03	-2.517626e-03	1.316080e-03	1.570530e-03	1.694212e-03	-2.956245e-03	-2.740975e-03	3.480906e-03	-4.260472e-03	-3.453452e-03	-3.180456e-03	2.968239e-03	4.153727e-03	1.225989e-03	1.312387e-03	1.837625e-03	1.259699e-03	1.500085e-03	1.697894e-03	2.081825e-03	2.384994e-03	5.291427e-05	1.638871e-03	1.486879e-03	-2.613694e-04	6.698845e-04	-1.147499e-03	-8.663499e-04	-1.656839e-03	-1.411057e-03	-2.103341e-03	-1.887562e-03	-2.627597e-03	-2.310546e-03	-3.309679e-03	-2.851266e-03	-3.801976e-03	-2.208117e-03	-2.413404e-03	-1.772907e-03	-1.996171e-03	-1.280579e-03	-1.535120e-03	-7.187256e-04	-1.007997e-03	-1.039526e-04	-4.156591e-04	8.130524e-04	2.102478e-04	1.556712e-03	1.425060e-03	1.953411e-03	1.732234e-03	5.045873e-03	2.225458e-03	9.162758e-03	6.185529e-03	6.103396e-04	2.317362e-03	1.489075e-03	1.510766e-03	8.096783e-04	1.157404e-03	3.252225e-04	7.490894e-03	6.301802e-03	3.208637e-03	3.793413e-03	1.261659e-03	2.754243e-03	-4.549873e-03	-4.894854e-03	1.217636e-03	-5.319657e-03	-5.860239e-03	1.368265e-03	1.648589e-03	-3.065408e-03	-1.625867e-02	-9.388177e-03	-1.216034e-02	1.568721e-03	-1.226928e-03	-6.583908e-03	1.202673e-03	-3.229516e-03	-2.767291e-03	-5.003787e-04	2.775982e-04	7.452454e-04	3.785705e-03	-6.134860e-04	-1.267696e-03	6.211436e-04	1.523329e-03	1.188616e-03	-2.803065e-03	7.982529e-04	1.504030e-03	1.452929e-03	2.578566e-03	6.734614e-04	1.237198e-03	1.300711e-03	-2.885039e-04	-2.784256e-03	4.903465e-04	-2.345966e-03	1.400945e-03	2.469125e-04	1.536996e-03	1.436647e-03	8.377970e-04	-4.114242e-04	7.411259e-04	1.181586e-03	1.416238e-03	5.745614e-03	7.032060e-03	-1.641380e-04	-1.939393e-03	2.927538e-03	-3.210039e-04	2.253769e-03	-2.264863e-03	-5.094236e-03	1.910919e-03	1.353924e-03	-3.299322e-03	-2.370885e-03	-5.603467e-03	-3.454748e-03	-4.352230e-03	1.801757e-03	1.823265e-03	1.856722e-03	3.106826e-03	1.472319e-03	4.523110e-04	7.446726e-03	2.485082e-03	4.771451e-03	-3.835552e-03	-6.257050e-03	-2.475695e-03	3.069674e-04	-6.582181e-03	-8.163338e-03	-7.154251e-03	2.580853e-03	-2.450192e-04	-3.010585e-03	-2.234796e-03	-1.917115e-03	-2.102726e-03	3.488780e-03	-6.929101e-04	5.487668e-03	3.630989e-03	1.832139e-03	1.080977e-03	2.238265e-03	1.196827e-03	6.389074e-04	3.024274e-03	-2.565378e-03	8.090920e-04	1.850467e-03	1.265248e-03	1.683680e-03	1.213128e-03	1.186309e-03	-5.461778e-04	1.182637e-03	1.201252e-03	1.277951e-03	-1.634628e-03	1.329622e-03	1.495088e-03	1.979264e-03	1.029349e-04	1.509372e-03	1.485505e-03	4.482958e-03	8.692990e-04	9.043181e-04	9.439738e-04	-1.863973e-03	7.608758e-04	7.844368e-04	6.887725e-04	-1.215651e-03	1.216711e-03	1.241492e-03	1.785978e-04	-1.760315e-04	1.133412e-03	1.291514e-03	1.617839e-03	1.775378e-03	1.536309e-03	1.529670e-03	-7.416434e-05	1.945365e-05	1.184866e-03	1.240008e-03	-1.027852e-03	-8.531925e-04	-2.582422e-03	7.055653e-04	7.221670e-04	3.616651e-04	4.097329e-04	5.229785e-04	5.526501e-04	6.400663e-04	6.566052e-04	5.780704e-04	-1.694906e-03	-3.109238e-03	5.180430e-03	-4.684298e-03	1.227426e-03	1.474830e-03	1.579841e-03	1.670203e-03	-4.071726e-03	-3.632370e-03	-2.810003e-03	1.741508e-03	1.797112e-03	1.872921e-03	-2.696552e-03	-3.159895e-03	4.073338e-03	4.401215e-03	1.750579e-03	1.710265e-03	2.363266e-03	2.618432e-03	2.765177e-03	-1.462800e-03	-9.249506e-04	-7.814273e-04	-1.337116e-03	-1.826394e-03	-2.584661e-03	-2.159155e-03	-2.049743e-03	-1.707330e-03	-1.589209e-03	-1.203182e-03	-1.068282e-03	-6.302566e-04	-4.789795e-04	-2.064001e-06	1.580813e-04	9.475301e-04	1.091403e-03	3.206437e-04	4.816108e-04	1.918159e-03	1.988948e-03	2.067050e-03	2.156353e-03	7.499968e-03	5.624805e-03	6.089894e-03	1.378162e-03	1.337448e-03	9.864077e-04	1.033208e-03	2.904197e-04	6.559472e-03	3.307748e-03	3.532182e-03	1.733818e-03	1.688858e-03	1.909112e-03	1.939696e-03	-3.036105e-03	-2.919580e-03	1.344647e-03	1.391178e-03	-1.417728e-03	-2.997671e-03	6.015285e-04	-2.588423e-03	6.373884e-04	5.056548e-04	1.265031e-03	9.216487e-04	1.090294e-03	-4.993162e-03	-4.623365e-03	-3.412468e-03	5.666473e-04	-5.391884e-03	-1.011757e-02	-9.444588e-03	3.940249e-03	-1.625866e-03	-1.988654e-03	-1.821181e-03	-3.522628e-04	1.109357e-03	2.473854e-03	1.014670e-03	7.487461e-03	-2.775382e-03	1.335466e-03	-2.924990e-03	1.340596e-03	-2.200402e-03	1.091899e-03	-2.600937e-03	5.624878e-04	1.107747e-03	1.319063e-03	2.804297e-03	-2.409888e-03	-4.037338e-03	1.437056e-03	-3.106429e-03	4.442179e-05	-5.925510e-03	1.567753e-03	2.063141e-03	2.230424e-03	2.627485e-03	4.057177e-03	-1.015849e-02	-2.778550e-03	-8.396772e-04	6.157674e-03	-1.356857e-03	1.356803e-03	-4.649441e-04	-2.053393e-03	1.447011e-04	7.380137e-04	-1.776410e-03	4.775775e-03	-1.767257e-03	-1.281815e-03	-1.172328e-04	-4.309555e-03	-3.251674e-03	-2.303425e-03	-2.198966e-03	2.204518e-03	2.085818e-03	2.164152e-03	3.263031e-03	1.267852e-03	1.298078e-03	3.383002e-04	5.941649e-03	2.733532e-03	-3.799318e-03	-6.677227e-03	2.577854e-03	-3.668158e-04	-2.911265e-03	-2.352407e-03	-1.572799e-03	6.422890e-03	7.439969e-03	1.458206e-03	2.180023e-03	8.591135e-04	7.096113e-04	1.983036e-03	1.153452e-03	1.127437e-03	1.081100e-03	1.075960e-03	-7.228840e-04	-5.886836e-04	1.073518e-03	1.079712e-03	1.215763e-03	1.276769e-03	1.940873e-03	1.312801e-03	1.295150e-03	3.263207e-03	7.708292e-04	8.031360e-04	6.581572e-04	6.833479e-04	-1.380246e-03	1.135241e-03	1.169049e-03	1.097085e-05	8.092245e-05	9.671223e-04	1.011914e-03	1.585230e-03	1.745003e-03	1.342563e-03	1.334300e-03	-2.486533e-04	-1.535952e-04	-6.656017e-05	1.059496e-03	1.104880e-03	-1.198482e-03	-1.027410e-03	-8.679262e-04	5.790929e-04	5.984666e-04	6.161349e-04	2.014232e-04	2.521875e-04	2.987492e-04	3.756819e-04	4.064379e-04	5.262581e-04	5.436177e-04	4.365887e-04	4.872944e-03	1.682179e-03	1.780598e-03	-3.594229e-03	1.857160e-03	1.919413e-03	1.960147e-03	1.998444e-03	-2.625797e-03	4.306727e-03	4.582505e-03	2.072416e-03	2.111997e-03	2.848519e-03	2.973147e-03	3.111349e-03	-7.319324e-04	-2.516372e-03	-2.406387e-03	-2.095827e-03	-1.986944e-03	-1.879068e-03	-1.645791e-03	-1.532243e-03	-1.410292e-03	-1.152209e-03	-1.016812e-03	-8.767047e-04	-5.834879e-04	-4.315328e-04	-2.752850e-04	2.059988e-04	1.162452e-03	1.302153e-03	3.698350e-04	5.322834e-04	6.940790e-04	2.228538e-03	2.297074e-03	2.368651e-03	2.447563e-03	2.531357e-03	5.173135e-03	5.473884e-03	1.239440e-03	1.210839e-03	1.179887e-03	8.389469e-04	8.810158e-04	5.763360e-03	6.011243e-03	3.433314e-03	3.620470e-03	3.829260e-03	2.142324e-03	2.032365e-03	2.099890e-03	2.181693e-03	-2.976528e-03	-2.853944e-03	-2.740291e-03	1.151154e-03	1.193135e-03	1.233926e-03	4.615710e-04	4.859152e-04	-2.571610e-03	-4.092393e-04	-5.366475e-03	-3.912018e-03	8.438999e-04	-1.795147e-03	4.162592e-03	9.952274e-04	1.021335e-03	-1.502356e-03	-4.705402e-03	1.693225e-03	-2.713985e-03	4.747158e-03	-2.539891e-03	-3.176728e-03	-4.991388e-03	-8.573001e-04	1.975169e-04	-2.665149e-04	-5.071659e-03	1.883616e-03	1.125508e-03	5.285370e-05	-1.864802e-03	5.519410e-04	-5.119360e-04	6.271869e-04	4.070005e-04	-4.148630e-03	1.165056e-03	-3.033677e-03	-2.903759e-03	-1.123970e-03	2.933487e-03	2.340464e-03	1.971821e-03	4.247652e-03	9.945586e-04	-6.935830e-03	-4.413119e-03	2.661109e-03	1.370645e-03	-2.048621e-03	1.183596e-03	-2.657684e-03	1.175493e-03	1.196801e-03	-2.227708e-03	2.182268e-03	-2.396673e-03	-1.614246e-03	1.579480e-03	2.458047e-03	-1.357616e-03	3.822057e-03	4.130046e-05	-2.135994e-03	2.429028e-03	2.426914e-03	2.375469e-03	1.145397e-03	1.151215e-03	-3.696477e-03	2.283411e-03	7.236189e-04	-2.740879e-03	-2.425129e-03	-1.677408e-03	1.277232e-03	1.782440e-03	1.001302e-03	1.028866e-03	1.006894e-03	9.813149e-04	9.758616e-04	-7.456541e-04	-6.241919e-04	9.711212e-04	9.741192e-04	9.850359e-04	1.138858e-03	1.200317e-03	1.170215e-03	1.135183e-03	2.381559e-03	6.593804e-04	6.925417e-04	5.726316e-04	6.011739e-04	1.052294e-03	1.089389e-03	-7.285125e-05	-1.100721e-05	8.737175e-04	1.484362e-03	1.621868e-03	1.185956e-03	1.169038e-03	-3.133090e-04	-2.278280e-04	-1.440932e-04	9.262135e-04	9.553594e-04	-1.334331e-03	-1.172079e-03	-1.016851e-03	-8.758426e-04	4.666933e-04	4.877335e-04	5.068462e-04	5.292185e-04	1.031429e-04	1.546221e-04	1.962571e-04	2.376295e-04	2.710877e-04	4.481310e-04	4.266931e-04	3.048633e-04	1.810806e-03	-3.504837e-03	-3.332940e-03	1.894983e-03	1.966602e-03	2.020801e-03	2.057456e-03	2.079287e-03	4.438265e-03	4.621482e-03	2.346771e-03	2.381337e-03	3.040263e-03	3.151427e-03	3.273721e-03	3.406471e-03	-2.439898e-03	-2.335713e-03	-2.233208e-03	-2.034570e-03	-1.932418e-03	-1.825507e-03	-1.718908e-03	-1.492838e-03	-1.370969e-03	-1.262193e-03	-1.000062e-03	-8.549462e-04	-7.222229e-04	-5.703885e-04	-4.291338e-04	-2.711727e-04	-1.209778e-04	1.436768e-03	1.298255e-03	3.603523e-04	5.207161e-04	6.844807e-04	8.497733e-04	2.444562e-03	2.515034e-03	2.591752e-03	2.671708e-03	2.750624e-03	2.838334e-03	4.793680e-03	4.952463e-03	1.095937e-03	1.068216e-03	1.048855e-03	7.214290e-04	7.667273e-04	7.950986e-04	5.086760e-03	5.158684e-03	5.100065e-03	3.551841e-03	3.709898e-03	3.885786e-03	4.065823e-03	2.102239e-03	2.148351e-03	2.220447e-03	2.334131e-03	-2.549329e-03	-2.779150e-03	-2.666598e-03	1.008547e-03	1.033705e-03	1.084147e-03	1.101688e-03	3.328352e-04	3.609251e-04	3.833304e-04	-2.051206e-03	-4.826258e-03	1.171114e-03	-7.564412e-03	-2.198815e-03	1.056313e-03	-4.526086e-04	-2.325280e-03	-3.555224e-03	-2.505866e-03	-1.576498e-03	-2.503581e-05	3.166224e-03	3.025451e-03	-1.749269e-04	-1.744959e-03	-2.077939e-03	-2.181620e-03	-2.075700e-03	-2.574200e-03	2.159577e-03	2.512009e-03	1.248888e-03	1.689311e-03	9.431299e-04	1.011305e-03	4.811290e-04	-4.351098e-03	-2.392670e-03	-2.702302e-03	1.322323e-03	1.572820e-03	2.444300e-04	-9.161910e-04	1.765865e-03	7.459095e-04	2.409316e-03	-4.148327e-03	-5.465898e-04	-7.846992e-03	-3.737701e-03	-2.244381e-03	4.436114e-03	4.966209e-03	9.265200e-04	-1.429453e-03	-2.537034e-03	3.801832e-03	-2.418685e-03	-2.947906e-03	-8.099667e-04	-2.977741e-03	-5.158960e-04	-1.899740e-03	3.572373e-04	3.261243e-04	-3.928877e-03	1.106996e-03	-2.823685e-03	1.552024e-03	1.039118e-03	-1.310289e-03	2.594172e-03	2.584393e-03	2.541941e-03	1.006589e-03	1.906941e-03	7.366010e-04	-2.434721e-03	-1.737434e-03	9.248108e-04	9.211427e-04	9.016567e-04	9.010313e-04	-6.502984e-04	-7.595298e-04	8.865311e-04	8.923288e-04	8.923035e-04	8.978924e-04	1.050421e-03	1.105574e-03	1.036256e-03	1.805678e-03	5.684061e-04	5.919862e-04	5.126842e-04	5.309444e-04	9.698210e-04	1.005354e-03	-1.423889e-04	-7.212818e-05	1.339505e-03	1.441439e-03	1.043481e-03	-3.638537e-04	-2.745720e-04	-2.074770e-04	8.180468e-04	-1.282401e-03	-1.136485e-03	-1.001002e-03	-8.767599e-04	3.698931e-04	3.994843e-04	4.122728e-04	4.429255e-04	4.598233e-04	3.640825e-05	7.268654e-05	1.254835e-04	1.532865e-04	1.982577e-04	-3.385539e-03	-3.228220e-03	-3.083512e-03	1.877136e-03	1.947972e-03	2.022061e-03	2.064970e-03	2.105405e-03	4.280049e-03	4.364359e-03	2.521681e-03	2.511428e-03	3.257775e-03	3.365087e-03	3.493808e-03	-2.278414e-03	-2.189336e-03	-2.085923e-03	-2.000077e-03	-1.890304e-03	-1.795675e-03	-1.681449e-03	-1.525494e-03	-1.344154e-03	-1.167867e-03	-6.428347e-04	-3.590231e-04	-6.212124e-05	5.572533e-04	8.653026e-04	2.556994e-03	2.617443e-03	2.702161e-03	2.787843e-03	2.867198e-03	2.961828e-03	3.056312e-03	4.422773e-03	4.466163e-03	9.735138e-04	9.655266e-04	9.456476e-04	6.218702e-04	6.769263e-04	4.478488e-03	4.413214e-03	4.217598e-03	3.623679e-03	3.758470e-03	3.904252e-03	4.040504e-03	4.161691e-03	2.126588e-03	2.161070e-03	2.195392e-03	2.275313e-03	-2.591847e-03	-2.488529e-03	8.893096e-04	9.542262e-04	2.210753e-04	2.607470e-04	2.778239e-04	3.117861e-04	5.106003e-03	-7.888164e-03	-2.119738e-03	-2.035566e-03	1.275922e-03	1.088959e-03	-3.686987e-03	-1.232544e-03	-2.840951e-03	2.074018e-03	1.212129e-03	-2.410719e-03	-1.477765e-03	-2.005832e-03	2.342731e-03	-4.721675e-03	1.544639e-03	-7.384623e-04	-1.881571e-03	1.034811e-03	6.147015e-04	-3.520801e-03	2.769459e-04	8.593452e-04	8.358842e-04	8.006602e-04	-4.816690e-04	-5.522844e-05	-2.356976e-03	4.381384e-04	-6.632132e-04	-5.705607e-04	3.342850e-03	-3.229815e-03	-2.281803e-03	-1.646588e-03	2.390438e-03	9.860520e-04	-7.449190e-03	-3.369742e-03	-2.145252e-03	-2.437106e-03	1.289818e-03	9.211873e-04	1.648761e-03	1.843628e-03	-3.873099e-03	-1.779258e-03	-4.801193e-03	-2.333713e-03	4.487262e-03	-1.352203e-03	-2.257157e-03	-2.197484e-03	1.204791e-03	-1.609720e-03	-2.728337e-03	-2.621868e-03	1.427157e-03	2.553972e-03	2.623330e-03	9.129110e-04	6.612863e-04	-1.156858e-04	-1.751939e-03	8.352248e-04	8.211427e-04	-7.652246e-04	8.165162e-04	8.136165e-04	9.438779e-04	1.385433e-03	4.904499e-04	8.797406e-04	9.088962e-04	-1.603076e-04	1.146663e-03	9.133898e-04	9.021585e-04	-3.557150e-04	-2.587380e-04	6.771165e-04	-1.221835e-03	-1.089455e-03	-9.753849e-04	-8.698089e-04	3.218449e-04	3.680594e-04	3.968145e-04	3.328721e-05	1.088912e-04	-3.093105e-03	-2.963537e-03	1.991558e-03	2.086325e-03	4.065861e-03	2.614753e-03	3.494488e-03	-1.162154e-03	-2.093342e-03	-1.900579e-03	-1.699764e-03	-1.505957e-03	-1.332955e-03	-9.529707e-04	-6.999612e-04	-4.324565e-04	-1.564138e-04	1.305029e-04	4.253094e-04	7.194472e-04	9.840680e-04	2.688256e-03	2.840375e-03	2.989894e-03	3.095992e-03	3.200950e-03	4.029745e-03	3.986837e-03	8.825366e-04	8.711175e-04	8.462546e-04	5.250864e-04	5.597597e-04	3.914138e-03	3.758461e-03	3.475058e-03	3.040712e-03	3.617860e-03	3.734139e-03	3.849383e-03	3.948337e-03	4.010455e-03	4.104287e-03	2.144164e-03	2.194556e-03	-2.534908e-03	-2.419640e-03	7.409252e-04	8.519775e-04	8.900671e-04	1.739355e-04	2.286059e-04	-3.965389e-03	3.932835e-03	3.915572e-03	-5.160505e-03	-9.929435e-04	-3.516540e-03	-3.273714e-03	1.734116e-03	-1.996311e-03	-1.720900e-03	2.381526e-03	1.406469e-03	5.395301e-04	-1.541868e-03	-2.346730e-03	-2.817598e-03	8.120922e-04	2.172712e-03	-4.413158e-03	7.309019e-04	-1.487084e-03	3.771962e-03	1.223325e-03	-1.924496e-03	3.475686e-04	7.659776e-04	7.354822e-04	5.737562e-04	8.698934e-04	9.010499e-04	-1.379560e-03	-1.269975e-03	-5.950870e-03	-3.179056e-03	-3.315803e-03	-2.613150e-03	2.541185e-03	1.046910e-03	8.010421e-04	-7.582149e-04	-6.762820e-03	-6.840284e-03	-2.188870e-03	8.404991e-04	-2.712179e-03	-2.107470e-04	9.411722e-04	-1.141591e-03	-1.823562e-03	5.189666e-04	-2.267657e-03	-6.732819e-04	-5.883595e-04	-3.052590e-03	-1.954475e-03	8.165312e-04	9.820106e-04	8.124714e-04	-2.334895e-03	2.720056e-03	-8.528827e-04	-2.106064e-03	-2.028213e-03	1.475798e-03	-1.607495e-03	-2.520022e-03	1.261221e-03	2.337902e-03	8.122849e-04	-1.028324e-04	-6.654384e-04	7.347202e-04	7.297256e-04	7.378438e-04	7.542613e-04	1.078304e-03	3.933867e-04	7.790610e-04	7.955532e-04	3.123745e-04	7.740038e-04	7.609936e-04	8.053207e-04	-4.908343e-04	-3.834200e-04	-2.957370e-04	-1.148145e-03	2.211519e-04	2.697657e-04	-1.984409e-04	-1.027926e-04	7.747797e-04	-2.932396e-03	1.682810e-03	1.857987e-03	3.424088e-03	-2.066558e-03	-1.875166e-03	-1.153589e-03	-1.677577e-03	-1.488371e-03	-1.315912e-03	-9.767292e-04	-7.629363e-04	-5.207261e-04	-2.661506e-04	-2.589469e-06	2.712496e-04	5.488810e-04	2.643336e-03	2.683915e-03	2.779675e-03	2.934785e-03	3.113607e-03	3.283984e-03	3.614332e-03	3.507634e-03	7.918894e-04	7.459922e-04	4.395837e-04	4.752342e-04	3.382121e-03	3.179419e-03	2.856860e-03	2.424712e-03	1.877974e-03	3.534250e-03	3.628086e-03	3.714550e-03	3.770248e-03	3.