# vtk DataFile Version 3.0
vtk output
ASCII
DATASET UNSTRUCTURED_GRID
POINTS 5233 float
9.997500e-01	-3.632909e-05	0.0	9.990000e-01	-1.452618e-04	0.0	9.977600e-01	-3.252008e-04	0.0	9.960200e-01	-5.774943e-04	0.0	9.937800e-01	-9.022942e-04	0.0	9.910500e-01	-1.298763e-03	0.0	9.878400e-01	-1.766726e-03	0.0	9.841300e-01	-2.311194e-03	0.0	9.799500e-01	-2.930640e-03	0.0	9.752800e-01	-3.631444e-03	0.0	9.701500e-01	-4.412625e-03	0.0	9.645400e-01	-5.280292e-03	0.0	9.584700e-01	-6.233365e-03	0.0	9.519400e-01	-7.272227e-03	0.0	9.449600e-01	-8.393908e-03	0.0	9.375400e-01	-9.593773e-03	0.0	9.296900e-01	-1.086609e-02	0.0	9.214000e-01	-1.220804e-02	0.0	9.127000e-01	-1.361074e-02	0.0	9.035800e-01	-1.507272e-02	0.0	8.940600e-01	-1.658877e-02	0.0	8.841500e-01	-1.815610e-02	0.0	8.738500e-01	-1.977361e-02	0.0	8.631800e-01	-2.143627e-02	0.0	8.521600e-01	-2.313752e-02	0.0	8.407700e-01	-2.487471e-02	0.0	8.290500e-01	-2.663345e-02	0.0	8.170100e-01	-2.840162e-02	0.0	8.046400e-01	-3.016792e-02	0.0	7.919700e-01	-3.191393e-02	0.0	7.790100e-01	-3.362378e-02	0.0	7.657800e-01	-3.528073e-02	0.0	7.522800e-01	-3.687177e-02	0.0	7.385200e-01	-3.838440e-02	0.0	7.245300e-01	-3.980643e-02	0.0	7.103200e-01	-4.113073e-02	0.0	6.958900e-01	-4.235375e-02	0.0	6.812700e-01	-4.347212e-02	0.0	6.664700e-01	-4.448693e-02	0.0	6.515000e-01	-4.540154e-02	0.0	6.363800e-01	-4.622067e-02	0.0	6.211300e-01	-4.695082e-02	0.0	6.057600e-01	-4.760016e-02	0.0	5.902800e-01	-4.817747e-02	0.0	5.747100e-01	-4.869148e-02	0.0	5.590600e-01	-4.915119e-02	0.0	5.433600e-01	-4.956464e-02	0.0	5.276100e-01	-4.993996e-02	0.0	5.118400e-01	-5.028359e-02	0.0	4.960500e-01	-5.060149e-02	0.0	4.802700e-01	-5.089775e-02	0.0	4.645100e-01	-5.117554e-02	0.0	4.487800e-01	-5.143670e-02	0.0	4.331100e-01	-5.168146e-02	0.0	4.175000e-01	-5.190932e-02	0.0	4.019700e-01	-5.211839e-02	0.0	3.865400e-01	-5.230586e-02	0.0	3.712300e-01	-5.246816e-02	0.0	3.560400e-01	-5.260130e-02	0.0	3.409900e-01	-5.270061e-02	0.0	3.261100e-01	-5.276113e-02	0.0	3.114000e-01	-5.277790e-02	0.0	2.968700e-01	-5.274582e-02	0.0	2.825500e-01	-5.265996e-02	0.0	2.684500e-01	-5.251559e-02	0.0	2.545700e-01	-5.230801e-02	0.0	2.409400e-01	-5.203324e-02	0.0	2.275700e-01	-5.168749e-02	0.0	2.144700e-01	-5.126729e-02	0.0	2.016600e-01	-5.076993e-02	0.0	1.891400e-01	-5.019238e-02	0.0	1.769300e-01	-4.953284e-02	0.0	1.650400e-01	-4.878952e-02	0.0	1.534900e-01	-4.796177e-02	0.0	1.422900e-01	-4.704883e-02	0.0	1.314400e-01	-4.604934e-02	0.0	1.209500e-01	-4.496296e-02	0.0	1.108500e-01	-4.379208e-02	0.0	1.011300e-01	-4.253503e-02	0.0	9.181000e-02	-4.119389e-02	0.0	8.290000e-02	-3.976997e-02	0.0	7.440000e-02	-3.826304e-02	0.0	6.633000e-02	-3.667657e-02	0.0	5.869000e-02	-3.501058e-02	0.0	5.149000e-02	-3.326708e-02	0.0	4.474000e-02	-3.144844e-02	0.0	3.844000e-02	-2.955433e-02	0.0	3.260000e-02	-2.758711e-02	0.0	2.723000e-02	-2.554977e-02	0.0	2.232000e-02	-2.343708e-02	0.0	1.790000e-02	-2.126113e-02	0.0	1.395000e-02	-1.901092e-02	0.0	1.049000e-02	-1.669561e-02	0.0	7.520000e-03	-1.431461e-02	0.0	5.040000e-03	-1.186637e-02	0.0	3.050000e-03	-9.347302e-03	0.0	1.560000e-03	-6.769269e-03	0.0	5.600000e-04	-4.108233e-03	0.0	6.000000e-05	-1.363608e-03	0.0	0.000000e+00	0.000000e+00	0.0	6.000000e-05	1.350236e-03	0.0	5.600000e-04	4.050826e-03	0.0	1.560000e-03	6.663226e-03	0.0	3.050000e-03	9.195473e-03	0.0	5.040000e-03	1.167583e-02	0.0	7.520000e-03	1.409653e-02	0.0	1.049000e-02	1.646478e-02	0.0	1.395000e-02	1.878581e-02	0.0	1.790000e-02	2.106403e-02	0.0	2.232000e-02	2.329392e-02	0.0	2.723000e-02	2.549065e-02	0.0	3.260000e-02	2.764558e-02	0.0	3.844000e-02	2.976800e-02	0.0	4.474000e-02	3.185849e-02	0.0	5.149000e-02	3.391797e-02	0.0	5.869000e-02	3.595015e-02	0.0	6.633000e-02	3.795531e-02	0.0	7.440000e-02	3.993367e-02	0.0	8.290000e-02	4.188739e-02	0.0	9.181000e-02	4.381361e-02	0.0	1.011300e-01	4.571359e-02	0.0	1.108500e-01	4.758588e-02	0.0	1.209500e-01	4.942683e-02	0.0	1.314400e-01	5.123782e-02	0.0	1.422900e-01	5.301272e-02	0.0	1.534900e-01	5.474871e-02	0.0	1.650400e-01	5.644398e-02	0.0	1.769300e-01	5.809472e-02	0.0	1.891400e-01	5.969553e-02	0.0	2.016600e-01	6.124223e-02	0.0	2.144700e-01	6.272926e-02	0.0	2.275700e-01	6.415328e-02	0.0	2.409400e-01	6.550849e-02	0.0	2.545700e-01	6.679020e-02	0.0	2.684500e-01	6.799357e-02	0.0	2.825500e-01	6.911218e-02	0.0	2.968700e-01	7.014214e-02	0.0	3.114000e-01	7.107860e-02	0.0	3.261100e-01	7.191555e-02	0.0	3.409900e-01	7.264840e-02	0.0	3.560400e-01	7.327286e-02	0.0	3.712300e-01	7.378330e-02	0.0	3.865400e-01	7.417483e-02	0.0	4.019700e-01	7.444303e-02	0.0	4.175000e-01	7.458295e-02	0.0	4.331100e-01	7.458992e-02	0.0	4.487800e-01	7.445955e-02	0.0	4.645100e-01	7.418745e-02	0.0	4.802700e-01	7.376991e-02	0.0	4.960500e-01	7.320341e-02	0.0	5.118400e-01	7.248482e-02	0.0	5.276100e-01	7.161270e-02	0.0	5.433600e-01	7.058503e-02	0.0	5.590600e-01	6.940265e-02	0.0	5.747100e-01	6.806549e-02	0.0	5.902800e-01	6.657731e-02	0.0	6.057600e-01	6.494175e-02	0.0	6.211300e-01	6.316504e-02	0.0	6.363800e-01	6.125402e-02	0.0	6.515000e-01	5.921698e-02	0.0	6.664700e-01	5.706516e-02	0.0	6.812700e-01	5.481151e-02	0.0	6.958900e-01	5.246892e-02	0.0	7.103200e-01	5.005129e-02	0.0	7.245300e-01	4.757686e-02	0.0	7.385200e-01	4.505941e-02	0.0	7.522800e-01	4.251466e-02	0.0	7.657800e-01	3.996213e-02	0.0	7.790100e-01	3.741749e-02	0.0	7.919700e-01	3.489399e-02	0.0	8.046400e-01	3.240819e-02	0.0	8.170100e-01	2.997405e-02	0.0	8.290500e-01	2.760884e-02	0.0	8.407700e-01	2.532127e-02	0.0	8.521600e-01	2.312328e-02	0.0	8.631800e-01	2.103157e-02	0.0	8.738500e-01	1.905016e-02	0.0	8.841500e-01	1.718895e-02	0.0	8.940600e-01	1.545535e-02	0.0	9.035800e-01	1.385019e-02	0.0	9.127000e-01	1.237271e-02	0.0	9.214000e-01	1.102010e-02	0.0	9.296900e-01	9.781662e-03	0.0	9.375400e-01	8.650401e-03	0.0	9.449600e-01	7.612208e-03	0.0	9.519400e-01	6.656126e-03	0.0	9.584700e-01	5.772587e-03	0.0	9.645400e-01	4.954359e-03	0.0	9.701500e-01	4.195689e-03	0.0	9.752800e-01	3.496291e-03	0.0	9.799500e-01	2.852720e-03	0.0	9.841300e-01	2.270023e-03	0.0	9.878400e-01	1.747228e-03	0.0	9.910500e-01	1.290667e-03	0.0	9.937800e-01	8.994899e-04	0.0	9.960200e-01	5.767420e-04	0.0	9.977600e-01	3.250644e-04	0.0	9.990000e-01	1.452495e-04	0.0	9.997500e-01	3.632890e-05	0.0	1.000000e+00	0.000000e+00	0.0	1.984229e+01	2.506660e+00	0.0	1.937166e+01	4.973800e+00	0.0	1.859553e+01	7.362490e+00	0.0	1.752613e+01	9.635070e+00	0.0	1.618034e+01	1.175571e+01	0.0	1.457937e+01	1.369094e+01	0.0	1.274848e+01	1.541027e+01	0.0	1.071654e+01	1.688656e+01	0.0	8.515590e+00	1.809654e+01	0.0	6.180340e+00	1.902113e+01	0.0	3.747630e+00	1.964575e+01	0.0	1.255810e+00	1.996053e+01	0.0	-1.255810e+00	1.996053e+01	0.0	-3.747630e+00	1.964574e+01	0.0	-6.180340e+00	1.902113e+01	0.0	-8.515590e+00	1.809654e+01	0.0	-1.071654e+01	1.688656e+01	0.0	-1.274848e+01	1.541026e+01	0.0	-1.457937e+01	1.369094e+01	0.0	-1.618034e+01	1.175570e+01	0.0	-1.752613e+01	9.635070e+00	0.0	-1.859553e+01	7.362490e+00	0.0	-1.937166e+01	4.973800e+00	0.0	-1.984229e+01	2.506660e+00	0.0	-2.000000e+01	0.000000e+00	0.0	-1.984229e+01	-2.506670e+00	0.0	-1.937166e+01	-4.973800e+00	0.0	-1.859553e+01	-7.362490e+00	0.0	-1.752613e+01	-9.635080e+00	0.0	-1.618034e+01	-1.175571e+01	0.0	-1.457937e+01	-1.369094e+01	0.0	-1.274848e+01	-1.541027e+01	0.0	-1.071653e+01	-1.688656e+01	0.0	-8.515580e+00	-1.809654e+01	0.0	-6.180340e+00	-1.902113e+01	0.0	-3.747620e+00	-1.964575e+01	0.0	-1.255810e+00	-1.996053e+01	0.0	1.255810e+00	-1.996053e+01	0.0	3.747630e+00	-1.964574e+01	0.0	6.180340e+00	-1.902113e+01	0.0	8.515590e+00	-1.809654e+01	0.0	1.071654e+01	-1.688656e+01	0.0	1.274848e+01	-1.541026e+01	0.0	1.457937e+01	-1.369094e+01	0.0	1.618034e+01	-1.175570e+01	0.0	1.752614e+01	-9.635070e+00	0.0	1.859553e+01	-7.362490e+00	0.0	1.937166e+01	-4.973790e+00	0.0	1.984229e+01	-2.506660e+00	0.0	2.000000e+01	0.000000e+00	0.0	6.093892e-02	-4.285144e-02	0.0	6.600410e-01	-5.844939e-02	0.0	4.255297e-01	8.863687e-02	0.0	6.904536e-01	6.677179e-02	0.0	3.791252e-01	-6.656260e-02	0.0	9.994589e-01	-7.258723e-04	0.0	9.985402e-01	-1.320872e-03	0.0	7.738251e-01	-4.634860e-02	0.0	6.897588e-01	-5.606349e-02	0.0	-1.367138e-03	6.233161e-03	0.0	7.467650e-01	-4.997311e-02	0.0	5.838090e-01	8.122916e-02	0.0	9.927651e-01	-3.598793e-03	0.0	9.898616e-01	-4.480982e-03	0.0	5.994275e-01	7.958836e-02	0.0	7.187102e-01	-5.322760e-02	0.0	-1.548094e-03	7.305687e-04	0.0	9.864673e-01	-5.441292e-03	0.0	9.825916e-01	-6.470515e-03	0.0	-1.358171e-03	-6.336027e-03	0.0	6.449375e-01	-5.947833e-02	0.0	8.244939e-01	-3.842106e-02	0.0	7.997632e-01	-4.246746e-02	0.0	3.482204e-01	8.660152e-02	0.0	8.478910e-01	-3.434813e-02	0.0	2.468390e-01	7.862192e-02	0.0	8.698983e-01	-3.032503e-02	0.0	1.001408e-02	2.079824e-02	0.0	8.904116e-01	-2.642047e-02	0.0	7.722818e-02	-4.682321e-02	0.0	9.093595e-01	-2.267674e-02	0.0	-1.865007e-03	-3.138557e-03	0.0	9.422484e-01	-1.580904e-02	0.0	9.266631e-01	-1.912583e-02	0.0	1.806769e-02	-2.637803e-02	0.0	4.256782e-01	-6.623083e-02	0.0	8.590773e-01	-3.232303e-02	0.0	9.560748e-01	-1.276843e-02	0.0	9.782290e-01	-7.589010e-03	0.0	9.680882e-01	-1.002215e-02	0.0	1.584746e-01	-5.900398e-02	0.0	9.000881e-01	-2.452666e-02	0.0	7.604299e-01	-4.820093e-02	0.0	9.971132e-01	-2.058079e-03	0.0	5.988429e-01	-6.197001e-02	0.0	4.413590e-01	-6.604490e-02	0.0	5.361230e-01	-6.418097e-02	0.0	4.728882e-01	-6.557080e-02	0.0	5.045102e-01	-6.495629e-02	0.0	4.886866e-01	-6.528085e-02	0.0	1.251652e-01	-5.514410e-02	0.0	2.799454e-02	-3.148915e-02	0.0	3.945492e-01	-6.649285e-02	0.0	4.640172e-02	-3.855324e-02	0.0	4.100682e-01	-6.638196e-02	0.0	3.187978e-01	-6.636792e-02	0.0	3.486567e-01	-6.657206e-02	0.0	3.367005e-02	-3.391128e-02	0.0	2.896281e-01	-6.592628e-02	0.0	9.346743e-01	-1.743395e-02	0.0	1.470184e-01	-5.780948e-02	0.0	1.948400e-01	-6.200962e-02	0.0	8.600599e-02	-4.867547e-02	0.0	1.048018e-01	-5.210645e-02	0.0	5.676108e-01	-6.321237e-02	0.0	1.702734e-01	-6.010386e-02	0.0	6.143295e-01	-6.122907e-02	0.0	8.803501e-01	-2.835590e-02	0.0	2.280418e-02	-2.897635e-02	0.0	9.951875e-01	-2.803889e-03	0.0	6.796488e-03	-1.820110e-02	0.0	1.798544e-02	2.626178e-02	0.0	9.182203e-01	-2.087471e-02	0.0	9.49388
[...]
POINT_DATA 5233

SCALARS Conservative_1 float 1
LOOKUP_TABLE default
1.281081e-02	5.751442e-03	4.538078e-03	3.631082e-03	3.058047e-03	2.627983e-03	2.293012e-03	2.027838e-03	1.817850e-03	1.651477e-03	1.521064e-03	1.420598e-03	1.345339e-03	1.291153e-03	1.254749e-03	1.231787e-03	1.221071e-03	1.215575e-03	1.215650e-03	1.221276e-03	1.236637e-03	1.257013e-03	1.285318e-03	1.323588e-03	1.369323e-03	1.425171e-03	1.485899e-03	1.553347e-03	1.621901e-03	1.690328e-03	1.756192e-03	1.812402e-03	1.861600e-03	1.893796e-03	1.915114e-03	1.918134e-03	1.909290e-03	1.883311e-03	1.847497e-03	1.797618e-03	1.742215e-03	1.677755e-03	1.611950e-03	1.541830e-03	1.473822e-03	1.405259e-03	1.341196e-03	1.279575e-03	1.223352e-03	1.171547e-03	1.125210e-03	1.083596e-03	1.046651e-03	1.015204e-03	9.870586e-04	9.640331e-04	9.432103e-04	9.261858e-04	9.100659e-04	8.963656e-04	8.823167e-04	8.692008e-04	8.543042e-04	8.393143e-04	8.211204e-04	8.014390e-04	7.774067e-04	7.504894e-04	7.184310e-04	6.820689e-04	6.399809e-04	5.918411e-04	5.375258e-04	4.758158e-04	4.069549e-04	3.299411e-04	2.438748e-04	1.490042e-04	4.378820e-05	-7.177962e-05	-1.993816e-04	-3.392928e-04	-4.929833e-04	-6.612445e-04	-8.460984e-04	-1.047984e-03	-1.269695e-03	-1.511347e-03	-1.774832e-03	-2.059236e-03	-2.362840e-03	-2.672643e-03	-2.986977e-03	-3.296894e-03	-3.439381e-03	-3.261214e-03	-2.998315e-03	-2.730363e-03	-2.247712e-03	-1.777845e-03	-1.364221e-03	-3.476983e-04	8.385931e-04	1.176931e-03	2.713334e-03	6.870967e-03	1.059333e-02	1.133897e-02	1.021355e-02	8.956040e-03	7.982841e-03	7.139702e-03	6.372086e-03	5.686527e-03	5.086414e-03	4.570683e-03	4.125169e-03	3.746279e-03	3.417101e-03	3.129302e-03	2.878592e-03	2.649908e-03	2.445739e-03	2.260154e-03	2.094036e-03	1.948490e-03	1.817750e-03	1.699460e-03	1.597543e-03	1.505992e-03	1.429255e-03	1.358111e-03	1.290820e-03	1.224635e-03	1.162533e-03	1.119642e-03	1.103571e-03	1.131262e-03	1.219166e-03	1.393543e-03	1.589780e-03	1.754199e-03	1.800762e-03	1.764662e-03	1.697749e-03	1.625534e-03	1.548938e-03	1.460980e-03	1.359637e-03	1.243837e-03	1.121151e-03	9.891038e-04	8.543854e-04	7.127389e-04	5.641025e-04	4.137644e-04	2.560408e-04	1.000983e-04	-5.688835e-05	-2.146758e-04	-3.687322e-04	-5.238241e-04	-6.725100e-04	-8.212709e-04	-9.622964e-04	-1.102554e-03	-1.234442e-03	-1.364914e-03	-1.486841e-03	-1.607362e-03	-1.719851e-03	-1.831685e-03	-1.935350e-03	-2.038836e-03	-2.137998e-03	-2.233794e-03	-2.327752e-03	-2.419189e-03	-2.514008e-03	-2.609809e-03	-2.713725e-03	-2.817800e-03	-2.922638e-03	-3.029119e-03	-3.147236e-03	-3.277119e-03	-3.424077e-03	-3.588910e-03	-3.776276e-03	-3.989346e-03	-4.233882e-03	-4.515872e-03	-4.844396e-03	-5.230090e-03	-5.689759e-03	-6.246234e-03	-7.060143e-03	-7.835073e-03	-1.363002e-02	-8.289147e-04	-7.705343e-06	-7.344639e-06	-6.862905e-06	-6.375829e-06	-5.724150e-06	-5.004416e-06	-4.104263e-06	-3.080317e-06	-1.954005e-06	-6.367904e-07	1.181983e-06	3.361260e-06	5.850092e-06	8.166686e-06	9.645237e-06	1.086358e-05	1.127101e-05	1.121591e-05	1.077705e-05	1.014809e-05	9.528186e-06	7.968199e-06	8.292339e-06	1.383492e-05	9.620773e-06	7.817584e-06	8.778041e-06	6.960449e-06	-4.188155e-07	-8.864543e-07	-1.414007e-06	-2.208259e-06	-2.693498e-06	-3.283859e-06	-3.978860e-06	-4.619930e-06	-4.732672e-06	-5.268396e-06	-5.035153e-06	-5.808422e-06	-6.937646e-06	-7.630753e-06	-8.133647e-06	-8.438516e-06	-8.592669e-06	-8.656499e-06	-8.620379e-06	-8.466442e-06	-8.211111e-06	-8.013491e-06	-6.954929e-04	1.606016e-03	1.852993e-03	-4.281940e-04	8.097463e-04	9.652814e-03	6.576915e-03	1.592219e-03	1.671471e-03	-3.121333e-04	1.663498e-03	6.896711e-04	3.024997e-03	2.552098e-03	5.329711e-04	1.692167e-03	-1.678602e-03	2.204737e-03	1.942375e-03	-2.803770e-03	1.560763e-03	1.385715e-03	1.492470e-03	1.876677e-03	1.291376e-03	1.657869e-03	1.222819e-03	9.238066e-03	1.188631e-03	-3.942039e-04	1.186337e-03	-2.484342e-03	1.219775e-03	1.191346e-03	-2.241777e-03	8.741863e-04	1.252845e-03	1.300487e-03	1.739688e-03	1.461139e-03	3.708835e-04	1.184572e-03	1.633613e-03	4.727526e-03	1.391470e-03	9.023291e-04	1.156535e-03	9.699678e-04	1.055248e-03	1.010670e-03	1.535270e-04	-1.718705e-03	8.283182e-04	-1.055160e-03	8.501340e-04	7.478884e-04	7.772469e-04	-1.480026e-03	7.165711e-04	1.201187e-03	3.065109e-04	5.247805e-04	-2.629641e-04	-3.451209e-05	1.270829e-03	4.286659e-04	1.451656e-03	1.200840e-03	-1.973059e-03	3.699413e-03	-3.051318e-03	8.442441e-03	1.188540e-03	1.251938e-03	1.582372e-03	2.918001e-04	1.335266e-03	6.554321e-04	1.212792e-03	1.684517e-03	1.545073e-03	6.428912e-05	5.989359e-04	1.331575e-03	1.644544e-03	-8.678101e-04	-3.262157e-03	-2.516475e-03	7.924943e-04	4.796870e-04	1.361353e-02	6.294250e-04	-1.432232e-04	7.323645e-04	6.787691e-04	9.339700e-04	1.688674e-03	-1.225378e-03	-3.028997e-03	1.134062e-03	-2.022273e-03	6.984900e-03	4.770238e-03	5.768814e-03	2.795585e-03	1.903612e-03	-7.333365e-03	1.269537e-03	1.622537e-03	-3.865174e-03	-3.480895e-03	-2.408822e-03	1.516207e-03	1.789773e-03	1.954211e-03	-2.840443e-03	-2.629484e-03	3.699797e-03	-4.102833e-03	-3.322892e-03	-3.058552e-03	3.196636e-03	4.361158e-03	1.538171e-03	1.605802e-03	2.096397e-03	1.625397e-03	1.714180e-03	1.936988e-03	2.329501e-03	2.623467e-03	2.105076e-04	1.910928e-03	1.771627e-03	-1.120583e-04	8.446404e-04	-1.020107e-03	-7.323124e-04	-1.540242e-03	-1.289543e-03	-1.993459e-03	-1.774823e-03	-2.517690e-03	-2.202120e-03	-3.183764e-03	-2.737764e-03	-3.659886e-03	-2.099142e-03	-2.305040e-03	-1.658440e-03	-1.885057e-03	-1.156287e-03	-1.416232e-03	-5.811270e-04	-8.774548e-04	4.941569e-05	-2.703996e-04	9.923997e-04	3.720999e-04	1.835636e-03	1.713580e-03	2.206497e-03	1.997352e-03	5.238807e-03	2.468086e-03	9.333538e-03	6.356370e-03	5.645324e-04	2.594553e-03	1.368674e-03	1.438165e-03	7.621856e-04	1.104194e-03	4.850610e-04	7.647706e-03	6.613433e-03	3.432597e-03	4.006843e-03	1.561147e-03	2.986051e-03	-4.382167e-03	-4.714790e-03	1.551829e-03	-5.123915e-03	-5.643775e-03	1.750266e-03	1.934748e-03	-2.946793e-03	-1.559476e-02	-9.025248e-03	-1.167857e-02	1.507708e-03	-1.259013e-03	-6.338732e-03	1.396503e-03	-3.249012e-03	-2.785947e-03	-5.381520e-04	2.341065e-04	6.984715e-04	3.963645e-03	-5.522375e-04	-1.225667e-03	5.786365e-04	1.463716e-03	1.102216e-03	-2.820404e-03	9.492003e-04	1.445377e-03	1.387815e-03	2.386384e-03	6.304687e-04	1.165283e-03	1.231581e-03	-3.261606e-04	-2.805792e-03	4.484975e-04	-2.368038e-03	1.286203e-03	2.062328e-04	1.476278e-03	1.380166e-03	7.925220e-04	-4.483294e-04	6.972927e-04	1.101415e-03	1.350224e-03	5.975202e-03	7.154056e-03	-3.351667e-05	-1.834663e-03	3.123519e-03	-1.934574e-04	2.471054e-03	-2.160677e-03	-4.906602e-03	2.162860e-03	1.523242e-03	-3.174555e-03	-2.266137e-03	-5.396130e-03	-3.325038e-03	-4.191978e-03	2.048107e-03	2.123672e-03	2.099201e-03	3.299624e-03	1.414788e-03	4.106520e-04	7.616103e-03	2.691737e-03	4.928412e-03	-3.693250e-03	-6.023420e-03	-2.370098e-03	2.660115e-04	-6.373126e-03	-7.850460e-03	-6.883565e-03	2.813231e-03	-1.590506e-04	-3.024526e-03	-2.231194e-03	-1.901697e-03	-2.127044e-03	3.216936e-03	-7.280009e-04	5.129900e-03	3.377487e-03	2.050321e-03	1.031781e-03	2.066690e-03	1.121313e-03	7.862891e-04	2.805791e-03	-2.576358e-03	7.642758e-04	2.077213e-03	1.194888e-03	1.955449e-03	1.139555e-03	1.108613e-03	-5.822336e-04	1.099568e-03	1.111198e-03	1.175158e-03	-1.662858e-03	1.221337e-03	1.372768e-03	1.823889e-03	6.303392e-05	1.446008e-03	1.421202e-03	4.181578e-03	8.235433e-04	8.580215e-04	8.970249e-04	-1.890332e-03	7.167645e-04	7.399655e-04	6.456602e-04	-1.247084e-03	1.122879e-03	1.143480e-03	1.382782e-04	-2.143649e-04	1.083283e-03	1.238460e-03	1.486520e-03	1.633253e-03	1.474701e-03	1.467062e-03	-1.130810e-04	-2.000105e-05	1.133865e-03	1.187939e-03	-1.060637e-03	-8.872068e-04	-2.602346e-03	6.622373e-04	6.786246e-04	3.204226e-04	3.682601e-04	4.809788e-04	5.104840e-04	5.973800e-04	6.137865e-04	5.357994e-04	-1.670461e-03	-3.124720e-03	5.328747e-03	-4.512032e-03	1.391553e-03	1.650483e-03	1.763422e-03	1.861850e-03	-3.921348e-03	-3.496849e-03	-2.698756e-03	1.940765e-03	2.004922e-03	2.092560e-03	-2.587651e-03	-3.039419e-03	4.245059e-03	4.565733e-03	2.001772e-03	1.968818e-03	2.575130e-03	2.820648e-03	2.963992e-03	-1.353631e-03	-8.079642e-04	-6.619337e-04	-1.226154e-03	-1.720825e-03	-2.477642e-03	-2.055046e-03	-1.945491e-03	-1.600860e-03	-1.481387e-03	-1.090467e-03	-9.533800e-04	-5.082957e-04	-3.541639e-04	1.315480e-04	2.950354e-04	1.102751e-03	1.250967e-03	4.609664e-04	6.253756e-04	2.156495e-03	2.222515e-03	2.295422e-03	2.379256e-03	7.629186e-03	5.763058e-03	6.219385e-03	1.311142e-03	1.269487e-03	9.388055e-04	9.848004e-04	4.453925e-04	6.683914e-03	3.496487e-03	3.715674e-03	2.041930e-03	1.980360e-03	2.114486e-03	2.148832e-03	-2.919174e-03	-2.805771e-03	1.290397e-03	1.335901e-03	-1.447655e-03	-3.019833e-03	5.591164e-04	-2.601600e-03	5.973354e-04	4.668469e-04	1.204999e-03	8.775144e-04	1.006750e-03	-4.811691e-03	-4.455410e-03	-3.285760e-03	7.052798e-04	-5.195643e-03	-9.719999e-03	-9.087882e-03	3.666301e-03	-1.644139e-03	-2.013496e-03	-1.802059e-03	-3.877267e-04	1.022008e-03	2.286198e-03	1.149544e-03	7.023014e-03	-2.791688e-03	1.281129e-03	-2.943474e-03	1.285287e-03	-2.223395e-03	1.021879e-03	-2.620020e-03	5.232741e-04	1.039605e-03	1.265763e-03	2.596491e-03	-2.430922e-03	-3.890038e-03	1.584737e-03	-2.989027e-03	1.619805e-04	-5.708908e-03	1.721127e-03	2.306587e-03	2.404594e-03	2.807470e-03	4.193636e-03	-9.763868e-03	-2.798149e-03	-7.824987e-04	6.260892e-03	-1.319490e-03	1.243131e-03	-4.998754e-04	-2.042996e-03	1.071367e-04	6.966194e-04	-1.802969e-03	4.941714e-03	-1.668198e-03	-1.180037e-03	-1.996592e-06	-4.152788e-03	-3.129925e-03	-2.202993e-03	-2.099436e-03	2.429057e-03	2.342950e-03	2.369565e-03	3.422063e-03	1.216551e-03	1.245720e-03	3.001065e-04	6.068588e-03	2.907743e-03	-3.660071e-03	-6.430615e-03	2.756653e-03	-2.803483e-04	-2.926390e-03	-2.353501e-03	-1.600910e-03	6.016352e-03	6.974803e-03	1.336682e-03	2.010510e-03	9.903096e-04	6.686201e-04	2.192169e-03	1.088484e-03	1.061040e-03	1.008993e-03	1.001516e-03	-7.564488e-04	-6.229726e-04	9.964814e-04	9.995501e-04	1.114677e-03	1.169861e-03	1.786501e-03	1.254738e-03	1.235979e-03	3.028024e-03	7.289158e-04	7.608608e-04	6.179358e-04	6.427118e-04	-1.409721e-03	1.043749e-03	1.073090e-03	-2.608318e-05	4.360890e-05	9.222267e-04	9.662853e-04	1.454562e-03	1.603450e-03	1.286166e-03	1.276969e-03	-2.845970e-04	-1.899521e-04	-1.033153e-04	1.013003e-03	1.057537e-03	-1.229176e-03	-1.059174e-03	-9.006763e-04	5.397619e-04	5.588743e-04	5.763599e-04	1.636943e-04	2.142721e-04	2.606617e-04	3.373560e-04	3.680417e-04	4.872738e-04	5.045585e-04	3.980559e-04	4.987687e-03	1.843234e-03	1.950521e-03	-3.461714e-03	2.035856e-03	2.107193e-03	2.159084e-03	2.209006e-03	-2.520562e-03	4.435943e-03	4.704227e-03	2.299979e-03	2.326151e-03	3.017692e-03	3.138596e-03	3.273692e-03	-6.245820e-04	-2.413106e-03	-2.304816e-03	-1.996757e-03	-1.888236e-03	-1.780338e-03	-1.546605e-03	-1.432118e-03	-1.309363e-03	-1.049182e-03	-9.125226e-04	-7.708801e-04	-4.743130e-04	-3.204970e-04	-1.621447e-04	3.259598e-04	1.301396e-03	1.445067e-03	4.924607e-04	6.576098e-04	8.224163e-04	2.428530e-03	2.493713e-03	2.562832e-03	2.638480e-03	2.717258e-03	5.280941e-03	5.575496e-03	1.178207e-03	1.148446e-03	1.116330e-03	7.961516e-04	8.374888e-04	5.861219e-03	6.108588e-03	3.588240e-03	3.770076e-03	3.972658e-03	2.398426e-03	2.223843e-03	2.265790e-03	2.329472e-03	-2.862792e-03	-2.743468e-03	-2.632550e-03	1.102820e-03	1.143850e-03	1.183578e-03	4.229723e-04	4.471689e-04	-2.584348e-03	-4.426673e-04	-5.176221e-03	-3.771634e-03	8.030354e-04	-1.775105e-03	3.874682e-03	9.148006e-04	9.369651e-04	-1.530302e-03	-4.538115e-03	1.835100e-03	-2.731345e-03	4.848020e-03	-2.558426e-03	-3.059181e-03	-4.814616e-03	-8.002385e-04	3.057443e-04	-1.838147e-04	-4.919894e-03	1.700074e-03	1.068986e-03	1.797847e-05	-1.890126e-03	5.152929e-04	-5.450051e-04	5.897184e-04	3.714060e-04	-4.000381e-03	1.288422e-03	-2.920223e-03	-2.793814e-03	-1.028777e-03	3.081600e-03	2.558881e-03	1.812297e-03	4.344492e-03	9.296487e-04	-6.680023e-03	-4.255890e-03	2.456799e-03	1.252911e-03	-2.072485e-03	1.134205e-03	-2.674558e-03	1.125610e-03	1.145304e-03	-2.249922e-03	2.008946e-03	-2.417267e-03	-1.520259e-03	1.716437e-03	2.625282e-03	-1.320048e-03	3.947424e-03	1.466231e-04	-2.040593e-03	2.550837e-03	2.634683e-03	2.598755e-03	1.097876e-03	1.103281e-03	-3.563057e-03	2.420386e-03	8.404746e-04	-2.758531e-03	-2.430570e-03	-1.704132e-03	1.166820e-03	1.635545e-03	1.120544e-03	9.673114e-04	9.438727e-04	9.145129e-04	9.068562e-04	-7.777498e-04	-6.568077e-04	8.998238e-04	9.001130e-04	9.078539e-04	1.040668e-03	1.096398e-03	1.115908e-03	1.080240e-03	2.194843e-03	6.214155e-04	6.540577e-04	5.358756e-04	5.640014e-04	9.636815e-04	9.963084e-04	-1.073619e-04	-4.561698e-05	8.326490e-04	1.358187e-03	1.485947e-03	1.133809e-03	1.116134e-03	-3.470723e-04	-2.618343e-04	-1.784704e-04	8.839863e-04	9.128239e-04	-1.363319e-03	-1.202011e-03	-1.047645e-03	-9.073492e-04	4.308360e-04	4.517032e-04	4.706879e-04	4.928044e-04	6.824193e-05	1.195463e-04	1.611762e-04	2.024327e-04	2.358422e-04	4.123373e-04	3.910459e-04	2.695095e-04	1.961615e-03	-3.377443e-03	-3.210793e-03	2.054681e-03	2.135558e-03	2.199751e-03	2.246943e-03	2.274927e-03	4.528050e-03	4.705654e-03	2.547903e-03	2.565879e-03	3.182320e-03	3.288910e-03	3.406657e-03	3.535449e-03	-2.340602e-03	-2.238046e-03	-2.136892e-03	-1.939976e-03	-1.838304e-03	-1.731844e-03	-1.625106e-03	-1.399193e-03	-1.276488e-03	-1.166931e-03	-9.033372e-04	-7.579751e-04	-6.233850e-04	-4.711930e-04	-3.276872e-04	-1.691551e-04	-1.638184e-05	1.567440e-03	1.426188e-03	4.695713e-04	6.333250e-04	7.984443e-04	9.674686e-04	2.617389e-03	2.681718e-03	2.755791e-03	2.834187e-03	2.909620e-03	2.992260e-03	4.874176e-03	5.030818e-03	1.038519e-03	1.009678e-03	9.888253e-04	6.827597e-04	7.270534e-04	7.552540e-04	5.164203e-03	5.237366e-03	5.184806e-03	3.676142e-03	3.828419e-03	3.997598e-03	4.170270e-03	2.293203e-03	2.321514e-03	2.366728e-03	2.448381e-03	-2.447898e-03	-2.672437e-03	-2.562558e-03	9.647275e-04	9.894502e-04	1.038532e-03	1.055626e-03	2.974512e-04	3.254621e-04	3.478634e-04	-2.074470e-03	-4.658604e-03	1.065549e-03	-7.294533e-03	-2.220758e-03	1.009279e-03	-4.843339e-04	-2.345578e-03	-3.429117e-03	-2.524687e-03	-1.603279e-03	-5.760267e-05	3.287859e-03	3.122680e-03	-9.929848e-05	-1.723117e-03	-2.068514e-03	-2.176024e-03	-2.066561e-03	-2.591428e-03	1.983342e-03	2.606099e-03	1.136843e-03	1.543984e-03	8.615787e-04	9.586792e-04	4.478017e-04	-4.200587e-03	-2.296245e-03	-2.599355e-03	1.440033e-03	1.698555e-03	3.435456e-04	-8.261368e-04	1.900586e-03	7.090287e-04	2.502996e-03	-4.004048e-03	-5.780632e-04	-7.556790e-03	-3.606150e-03	-2.241538e-03	4.125738e-03	4.632138e-03	8.481858e-04	-1.457128e-03	-2.548975e-03	3.883699e-03	-2.437517e-03	-2.838817e-03	-7.542824e-04	-2.924060e-03	-5.779428e-04	-1.924278e-03	3.242166e-04	2.934408e-04	-3.791545e-03	1.218191e-03	-2.717755e-03	1.416573e-03	9.942308e-04	-1.271923e-03	2.724584e-03	2.749608e-03	2.740549e-03	9.635751e-04	2.012614e-03	8.330471e-04	-2.441183e-03	-1.763136e-03	8.659188e-04	8.603244e-04	8.392678e-04	8.362978e-04	-6.814330e-04	-7.903068e-04	8.199704e-04	8.230926e-04	8.208209e-04	8.234581e-04	9.559836e-04	1.005847e-03	9.860576e-04	1.651709e-03	5.338247e-04	5.572804e-04	4.787591e-04	4.970940e-04	8.844197e-04	9.156860e-04	-1.747171e-04	-1.047830e-04	1.220279e-03	1.314348e-03	9.952383e-04	-3.956744e-04	-3.068723e-04	-2.399437e-04	7.799684e-04	-1.310851e-03	-1.165667e-03	-1.030807e-03	-9.071419e-04	3.371554e-04	3.663609e-04	3.793871e-04	4.095276e-04	4.264597e-04	3.576296e-06	4.004053e-05	9.257832e-05	1.206433e-04	1.653530e-04	-3.264393e-03	-3.111543e-03	-2.970811e-03	2.021649e-03	2.100087e-03	2.185162e-03	2.236679e-03	2.287475e-03	4.343565e-03	4.423852e-03	2.716005e-03	2.694588e-03	3.376328e-03	3.476680e-03	3.598886e-03	-2.184077e-03	-2.096004e-03	-1.993945e-03	-1.908637e-03	-1.800002e-03	-1.705640e-03	-1.592140e-03	-1.436257e-03	-1.255404e-03	-1.078394e-03	-5.513217e-04	-2.655610e-04	3.387217e-05	6.602371e-04	9.727403e-04	2.722407e-03	2.769037e-03	2.844986e-03	2.928820e-03	3.003947e-03	3.094318e-03	3.184488e-03	4.481213e-03	4.525564e-03	9.192225e-04	9.094340e-04	8.882744e-04	5.869562e-04	6.410936e-04	4.539925e-03	4.477479e-03	4.287787e-03	3.722201e-03	3.850581e-03	3.989432e-03	4.117829e-03	4.231405e-03	2.309707e-03	2.340941e-03	2.362909e-03	2.411227e-03	-2.491492e-03	-2.390210e-03	8.497489e-04	9.129709e-04	1.884189e-04	2.277992e-04	2.451513e-04	2.788284e-04	4.766996e-03	-7.592026e-03	-2.141554e-03	-2.024932e-03	1.126887e-03	9.847796e-04	-3.561339e-03	-1.193480e-03	-2.737021e-03	1.901028e-03	1.096682e-03	-2.416391e-03	-1.504514e-03	-2.028946e-03	2.455630e-03	-4.582640e-03	1.627345e-03	-6.853144e-04	-1.905688e-03	9.358223e-04	5.821488e-04	-3.399728e-03	2.468208e-04	7.810589e-04	7.619612e-04	7.642957e-04	-5.118670e-04	-8.587450e-05	-2.376139e-03	4.074848e-04	-6.931079e-04	-6.006787e-04	3.443301e-03	-3.116277e-03	-2.189331e-03	-1.621651e-03	2.467777e-03	8.919500e-04	-7.179801e-03	-3.252632e-03	-2.138617e-03	-2.449281e-03	1.167699e-03	8.775173e-04	1.770615e-03	1.978984e-03	-3.742015e-03	-1.778951e-03	-4.636297e-03	-2.334760e-03	4.174105e-03	-1.379551e-03	-2.277775e-03	-2.218073e-03	1.311497e-03	-1.635665e-03	-2.627000e-03	-2.522788e-03	1.540264e-03	2.650865e-03	2.772523e-03	8.711068e-04	7.400936e-04	-4.851485e-05	-1.777007e-03	7.776002e-04	7.596398e-04	-7.948296e-04	7.506287e-04	7.443697e-04	8.542992e-04	1.255677e-03	4.592657e-04	7.980875e-04	8.234725e-04	-1.909685e-04	1.037109e-03	8.681821e-04	8.547380e-04	-3.862826e-04	-2.892969e-04	6.435455e-04	-1.249783e-03	-1.117868e-03	-1.004394e-03	-8.991623e-04	2.917268e-04	3.377324e-04	3.665342e-04	2.814771e-06	7.849424e-05	-2.983032e-03	-2.856664e-03	2.144282e-03	2.256215e-03	4.108200e-03	2.782478e-03	3.583142e-03	-1.078497e-03	-2.003734e-03	-1.813122e-03	-1.613989e-03	-1.421576e-03	-1.249221e-03	-8.691940e-04	-6.154889e-04	-3.465930e-04	-6.855287e-05	2.208981e-04	5.189149e-04	8.169370e-04	1.085734e-03	2.833652e-03	2.965694e-03	3.104140e-03	3.209378e-03	3.308068e-03	4.072560e-03	4.032990e-03	8.327557e-04	8.184789e-04	7.915157e-04	4.936692e-04	5.280170e-04	3.963988e-03	3.811905e-03	3.533836e-03	3.108078e-03	3.697532e-03	3.805612e-03	3.913127e-03	4.004520e-03	4.059809e-03	4.150672e-03	2.319015e-03	2.356693e-03	-2.437531e-03	-2.324814e-03	7.060713e-04	8.139594e-04	8.502613e-04	1.436503e-04	1.984633e-04	-3.832357e-03	3.653569e-03	3.639375e-03	-4.981544e-03	-1.020940e-03	-3.399656e-03	-3.200431e-03	1.580782e-03	-2.018325e-03	-1.745668e-03	2.190438e-03	1.273749e-03	6.040956e-04	-1.514440e-03	-2.351558e-03	-2.717657e-03	7.707243e-04	2.322307e-03	-4.263843e-03	6.673335e-04	-1.513164e-03	3.805506e-03	1.289433e-03	-1.947602e-03	3.198634e-04	6.916206e-04	7.008034e-04	5.430378e-04	7.792489e-04	8.064280e-04	-1.406169e-03	-1.297062e-03	-5.751310e-03	-3.071178e-03	-3.204769e-03	-2.517296e-03	2.629219e-03	1.145628e-03	7.629826e-04	-7.867961e-04	-6.516752e-03	-6.593221e-03	-2.183897e-03	7.536864e-04	-2.614372e-03	-2.856961e-04	8.421807e-04	-1.102664e-03	-1.847622e-03	4.891872e-04	-2.281891e-03	-7.019586e-04	-6.170391e-04	-2.947665e-03	-1.940810e-03	7.331896e-04	8.783794e-04	7.727185e-04	-2.336651e-03	2.499765e-03	-8.811619e-04	-2.127902e-03	-2.050409e-03	1.586992e-03	-1.632938e-03	-2.425798e-03	1.365320e-03	2.437929e-03	9.067519e-04	-4.457229e-05	-6.160590e-04	6.792001e-04	6.700884e-04	6.704882e-04	6.828693e-04	9.667450e-04	3.652590e-04	7.019269e-04	7.154584e-04	2.848231e-04	7.264784e-04	7.110757e-04	7.621891e-04	-5.194094e-04	-4.121287e-04	-3.242100e-04	-1.175625e-03	1.940145e-04	2.424733e-04	-2.266287e-04	-1.307459e-04	7.384612e-04	-2.830030e-03	1.803706e-03	1.991916e-03	3.501386e-03	-1.980323e-03	-1.791530e-03	-1.074626e-03	-1.596087e-03	-1.408361e-03	-1.236696e-03	-8.976216e-04	-6.832382e-04	-4.398753e-04	-1.836079e-04	8.214353e-05	3.587239e-04	6.396580e-04	2.768180e-03	2.825881e-03	2.904815e-03	3.039506e-03	3.209607e-03	3.370697e-03	3.648072e-03	3.545651e-03	7.467198e-04	6.937788e-04	4.108766e-04	4.460889e-04	3.424179e-03	3.224963e-03	2.906645e-03	2.480966e-03	1.940681e-03	3.600264e-03	3.683610e-03	3.761897e-03	3.810621e-03	3.8