# vtk DataFile Version 3.0
vtk output
ASCII
DATASET UNSTRUCTURED_GRID
POINTS 5233 float
9.997500e-01	-3.632909e-05	0.0	9.990000e-01	-1.452618e-04	0.0	9.977600e-01	-3.252008e-04	0.0	9.960200e-01	-5.774943e-04	0.0	9.937800e-01	-9.022942e-04	0.0	9.910500e-01	-1.298763e-03	0.0	9.878400e-01	-1.766726e-03	0.0	9.841300e-01	-2.311194e-03	0.0	9.799500e-01	-2.930640e-03	0.0	9.752800e-01	-3.631444e-03	0.0	9.701500e-01	-4.412625e-03	0.0	9.645400e-01	-5.280292e-03	0.0	9.584700e-01	-6.233365e-03	0.0	9.519400e-01	-7.272227e-03	0.0	9.449600e-01	-8.393908e-03	0.0	9.375400e-01	-9.593773e-03	0.0	9.296900e-01	-1.086609e-02	0.0	9.214000e-01	-1.220804e-02	0.0	9.127000e-01	-1.361074e-02	0.0	9.035800e-01	-1.507272e-02	0.0	8.940600e-01	-1.658877e-02	0.0	8.841500e-01	-1.815610e-02	0.0	8.738500e-01	-1.977361e-02	0.0	8.631800e-01	-2.143627e-02	0.0	8.521600e-01	-2.313752e-02	0.0	8.407700e-01	-2.487471e-02	0.0	8.290500e-01	-2.663345e-02	0.0	8.170100e-01	-2.840162e-02	0.0	8.046400e-01	-3.016792e-02	0.0	7.919700e-01	-3.191393e-02	0.0	7.790100e-01	-3.362378e-02	0.0	7.657800e-01	-3.528073e-02	0.0	7.522800e-01	-3.687177e-02	0.0	7.385200e-01	-3.838440e-02	0.0	7.245300e-01	-3.980643e-02	0.0	7.103200e-01	-4.113073e-02	0.0	6.958900e-01	-4.235375e-02	0.0	6.812700e-01	-4.347212e-02	0.0	6.664700e-01	-4.448693e-02	0.0	6.515000e-01	-4.540154e-02	0.0	6.363800e-01	-4.622067e-02	0.0	6.211300e-01	-4.695082e-02	0.0	6.057600e-01	-4.760016e-02	0.0	5.902800e-01	-4.817747e-02	0.0	5.747100e-01	-4.869148e-02	0.0	5.590600e-01	-4.915119e-02	0.0	5.433600e-01	-4.956464e-02	0.0	5.276100e-01	-4.993996e-02	0.0	5.118400e-01	-5.028359e-02	0.0	4.960500e-01	-5.060149e-02	0.0	4.802700e-01	-5.089775e-02	0.0	4.645100e-01	-5.117554e-02	0.0	4.487800e-01	-5.143670e-02	0.0	4.331100e-01	-5.168146e-02	0.0	4.175000e-01	-5.190932e-02	0.0	4.019700e-01	-5.211839e-02	0.0	3.865400e-01	-5.230586e-02	0.0	3.712300e-01	-5.246816e-02	0.0	3.560400e-01	-5.260130e-02	0.0	3.409900e-01	-5.270061e-02	0.0	3.261100e-01	-5.276113e-02	0.0	3.114000e-01	-5.277790e-02	0.0	2.968700e-01	-5.274582e-02	0.0	2.825500e-01	-5.265996e-02	0.0	2.684500e-01	-5.251559e-02	0.0	2.545700e-01	-5.230801e-02	0.0	2.409400e-01	-5.203324e-02	0.0	2.275700e-01	-5.168749e-02	0.0	2.144700e-01	-5.126729e-02	0.0	2.016600e-01	-5.076993e-02	0.0	1.891400e-01	-5.019238e-02	0.0	1.769300e-01	-4.953284e-02	0.0	1.650400e-01	-4.878952e-02	0.0	1.534900e-01	-4.796177e-02	0.0	1.422900e-01	-4.704883e-02	0.0	1.314400e-01	-4.604934e-02	0.0	1.209500e-01	-4.496296e-02	0.0	1.108500e-01	-4.379208e-02	0.0	1.011300e-01	-4.253503e-02	0.0	9.181000e-02	-4.119389e-02	0.0	8.290000e-02	-3.976997e-02	0.0	7.440000e-02	-3.826304e-02	0.0	6.633000e-02	-3.667657e-02	0.0	5.869000e-02	-3.501058e-02	0.0	5.149000e-02	-3.326708e-02	0.0	4.474000e-02	-3.144844e-02	0.0	3.844000e-02	-2.955433e-02	0.0	3.260000e-02	-2.758711e-02	0.0	2.723000e-02	-2.554977e-02	0.0	2.232000e-02	-2.343708e-02	0.0	1.790000e-02	-2.126113e-02	0.0	1.395000e-02	-1.901092e-02	0.0	1.049000e-02	-1.669561e-02	0.0	7.520000e-03	-1.431461e-02	0.0	5.040000e-03	-1.186637e-02	0.0	3.050000e-03	-9.347302e-03	0.0	1.560000e-03	-6.769269e-03	0.0	5.600000e-04	-4.108233e-03	0.0	6.000000e-05	-1.363608e-03	0.0	0.000000e+00	0.000000e+00	0.0	6.000000e-05	1.350236e-03	0.0	5.600000e-04	4.050826e-03	0.0	1.560000e-03	6.663226e-03	0.0	3.050000e-03	9.195473e-03	0.0	5.040000e-03	1.167583e-02	0.0	7.520000e-03	1.409653e-02	0.0	1.049000e-02	1.646478e-02	0.0	1.395000e-02	1.878581e-02	0.0	1.790000e-02	2.106403e-02	0.0	2.232000e-02	2.329392e-02	0.0	2.723000e-02	2.549065e-02	0.0	3.260000e-02	2.764558e-02	0.0	3.844000e-02	2.976800e-02	0.0	4.474000e-02	3.185849e-02	0.0	5.149000e-02	3.391797e-02	0.0	5.869000e-02	3.595015e-02	0.0	6.633000e-02	3.795531e-02	0.0	7.440000e-02	3.993367e-02	0.0	8.290000e-02	4.188739e-02	0.0	9.181000e-02	4.381361e-02	0.0	1.011300e-01	4.571359e-02	0.0	1.108500e-01	4.758588e-02	0.0	1.209500e-01	4.942683e-02	0.0	1.314400e-01	5.123782e-02	0.0	1.422900e-01	5.301272e-02	0.0	1.534900e-01	5.474871e-02	0.0	1.650400e-01	5.644398e-02	0.0	1.769300e-01	5.809472e-02	0.0	1.891400e-01	5.969553e-02	0.0	2.016600e-01	6.124223e-02	0.0	2.144700e-01	6.272926e-02	0.0	2.275700e-01	6.415328e-02	0.0	2.409400e-01	6.550849e-02	0.0	2.545700e-01	6.679020e-02	0.0	2.684500e-01	6.799357e-02	0.0	2.825500e-01	6.911218e-02	0.0	2.968700e-01	7.014214e-02	0.0	3.114000e-01	7.107860e-02	0.0	3.261100e-01	7.191555e-02	0.0	3.409900e-01	7.264840e-02	0.0	3.560400e-01	7.327286e-02	0.0	3.712300e-01	7.378330e-02	0.0	3.865400e-01	7.417483e-02	0.0	4.019700e-01	7.444303e-02	0.0	4.175000e-01	7.458295e-02	0.0	4.331100e-01	7.458992e-02	0.0	4.487800e-01	7.445955e-02	0.0	4.645100e-01	7.418745e-02	0.0	4.802700e-01	7.376991e-02	0.0	4.960500e-01	7.320341e-02	0.0	5.118400e-01	7.248482e-02	0.0	5.276100e-01	7.161270e-02	0.0	5.433600e-01	7.058503e-02	0.0	5.590600e-01	6.940265e-02	0.0	5.747100e-01	6.806549e-02	0.0	5.902800e-01	6.657731e-02	0.0	6.057600e-01	6.494175e-02	0.0	6.211300e-01	6.316504e-02	0.0	6.363800e-01	6.125402e-02	0.0	6.515000e-01	5.921698e-02	0.0	6.664700e-01	5.706516e-02	0.0	6.812700e-01	5.481151e-02	0.0	6.958900e-01	5.246892e-02	0.0	7.103200e-01	5.005129e-02	0.0	7.245300e-01	4.757686e-02	0.0	7.385200e-01	4.505941e-02	0.0	7.522800e-01	4.251466e-02	0.0	7.657800e-01	3.996213e-02	0.0	7.790100e-01	3.741749e-02	0.0	7.919700e-01	3.489399e-02	0.0	8.046400e-01	3.240819e-02	0.0	8.170100e-01	2.997405e-02	0.0	8.290500e-01	2.760884e-02	0.0	8.407700e-01	2.532127e-02	0.0	8.521600e-01	2.312328e-02	0.0	8.631800e-01	2.103157e-02	0.0	8.738500e-01	1.905016e-02	0.0	8.841500e-01	1.718895e-02	0.0	8.940600e-01	1.545535e-02	0.0	9.035800e-01	1.385019e-02	0.0	9.127000e-01	1.237271e-02	0.0	9.214000e-01	1.102010e-02	0.0	9.296900e-01	9.781662e-03	0.0	9.375400e-01	8.650401e-03	0.0	9.449600e-01	7.612208e-03	0.0	9.519400e-01	6.656126e-03	0.0	9.584700e-01	5.772587e-03	0.0	9.645400e-01	4.954359e-03	0.0	9.701500e-01	4.195689e-03	0.0	9.752800e-01	3.496291e-03	0.0	9.799500e-01	2.852720e-03	0.0	9.841300e-01	2.270023e-03	0.0	9.878400e-01	1.747228e-03	0.0	9.910500e-01	1.290667e-03	0.0	9.937800e-01	8.994899e-04	0.0	9.960200e-01	5.767420e-04	0.0	9.977600e-01	3.250644e-04	0.0	9.990000e-01	1.452495e-04	0.0	9.997500e-01	3.632890e-05	0.0	1.000000e+00	0.000000e+00	0.0	1.984229e+01	2.506660e+00	0.0	1.937166e+01	4.973800e+00	0.0	1.859553e+01	7.362490e+00	0.0	1.752613e+01	9.635070e+00	0.0	1.618034e+01	1.175571e+01	0.0	1.457937e+01	1.369094e+01	0.0	1.274848e+01	1.541027e+01	0.0	1.071654e+01	1.688656e+01	0.0	8.515590e+00	1.809654e+01	0.0	6.180340e+00	1.902113e+01	0.0	3.747630e+00	1.964575e+01	0.0	1.255810e+00	1.996053e+01	0.0	-1.255810e+00	1.996053e+01	0.0	-3.747630e+00	1.964574e+01	0.0	-6.180340e+00	1.902113e+01	0.0	-8.515590e+00	1.809654e+01	0.0	-1.071654e+01	1.688656e+01	0.0	-1.274848e+01	1.541026e+01	0.0	-1.457937e+01	1.369094e+01	0.0	-1.618034e+01	1.175570e+01	0.0	-1.752613e+01	9.635070e+00	0.0	-1.859553e+01	7.362490e+00	0.0	-1.937166e+01	4.973800e+00	0.0	-1.984229e+01	2.506660e+00	0.0	-2.000000e+01	0.000000e+00	0.0	-1.984229e+01	-2.506670e+00	0.0	-1.937166e+01	-4.973800e+00	0.0	-1.859553e+01	-7.362490e+00	0.0	-1.752613e+01	-9.635080e+00	0.0	-1.618034e+01	-1.175571e+01	0.0	-1.457937e+01	-1.369094e+01	0.0	-1.274848e+01	-1.541027e+01	0.0	-1.071653e+01	-1.688656e+01	0.0	-8.515580e+00	-1.809654e+01	0.0	-6.180340e+00	-1.902113e+01	0.0	-3.747620e+00	-1.964575e+01	0.0	-1.255810e+00	-1.996053e+01	0.0	1.255810e+00	-1.996053e+01	0.0	3.747630e+00	-1.964574e+01	0.0	6.180340e+00	-1.902113e+01	0.0	8.515590e+00	-1.809654e+01	0.0	1.071654e+01	-1.688656e+01	0.0	1.274848e+01	-1.541026e+01	0.0	1.457937e+01	-1.369094e+01	0.0	1.618034e+01	-1.175570e+01	0.0	1.752614e+01	-9.635070e+00	0.0	1.859553e+01	-7.362490e+00	0.0	1.937166e+01	-4.973790e+00	0.0	1.984229e+01	-2.506660e+00	0.0	2.000000e+01	0.000000e+00	0.0	6.093892e-02	-4.285144e-02	0.0	6.600410e-01	-5.844939e-02	0.0	4.255297e-01	8.863687e-02	0.0	6.904536e-01	6.677179e-02	0.0	3.791252e-01	-6.656260e-02	0.0	9.994589e-01	-7.258723e-04	0.0	9.985402e-01	-1.320872e-03	0.0	7.738251e-01	-4.634860e-02	0.0	6.897588e-01	-5.606349e-02	0.0	-1.367138e-03	6.233161e-03	0.0	7.467650e-01	-4.997311e-02	0.0	5.838090e-01	8.122916e-02	0.0	9.927651e-01	-3.598793e-03	0.0	9.898616e-01	-4.480982e-03	0.0	5.994275e-01	7.958836e-02	0.0	7.187102e-01	-5.322760e-02	0.0	-1.548094e-03	7.305687e-04	0.0	9.864673e-01	-5.441292e-03	0.0	9.825916e-01	-6.470515e-03	0.0	-1.358171e-03	-6.336027e-03	0.0	6.449375e-01	-5.947833e-02	0.0	8.244939e-01	-3.842106e-02	0.0	7.997632e-01	-4.246746e-02	0.0	3.482204e-01	8.660152e-02	0.0	8.478910e-01	-3.434813e-02	0.0	2.468390e-01	7.862192e-02	0.0	8.698983e-01	-3.032503e-02	0.0	1.001408e-02	2.079824e-02	0.0	8.904116e-01	-2.642047e-02	0.0	7.722818e-02	-4.682321e-02	0.0	9.093595e-01	-2.267674e-02	0.0	-1.865007e-03	-3.138557e-03	0.0	9.422484e-01	-1.580904e-02	0.0	9.266631e-01	-1.912583e-02	0.0	1.806769e-02	-2.637803e-02	0.0	4.256782e-01	-6.623083e-02	0.0	8.590773e-01	-3.232303e-02	0.0	9.560748e-01	-1.276843e-02	0.0	9.782290e-01	-7.589010e-03	0.0	9.680882e-01	-1.002215e-02	0.0	1.584746e-01	-5.900398e-02	0.0	9.000881e-01	-2.452666e-02	0.0	7.604299e-01	-4.820093e-02	0.0	9.971132e-01	-2.058079e-03	0.0	5.988429e-01	-6.197001e-02	0.0	4.413590e-01	-6.604490e-02	0.0	5.361230e-01	-6.418097e-02	0.0	4.728882e-01	-6.557080e-02	0.0	5.045102e-01	-6.495629e-02	0.0	4.886866e-01	-6.528085e-02	0.0	1.251652e-01	-5.514410e-02	0.0	2.799454e-02	-3.148915e-02	0.0	3.945492e-01	-6.649285e-02	0.0	4.640172e-02	-3.855324e-02	0.0	4.100682e-01	-6.638196e-02	0.0	3.187978e-01	-6.636792e-02	0.0	3.486567e-01	-6.657206e-02	0.0	3.367005e-02	-3.391128e-02	0.0	2.896281e-01	-6.592628e-02	0.0	9.346743e-01	-1.743395e-02	0.0	1.470184e-01	-5.780948e-02	0.0	1.948400e-01	-6.200962e-02	0.0	8.600599e-02	-4.867547e-02	0.0	1.048018e-01	-5.210645e-02	0.0	5.676108e-01	-6.321237e-02	0.0	1.702734e-01	-6.010386e-02	0.0	6.143295e-01	-6.122907e-02	0.0	8.803501e-01	-2.835590e-02	0.0	2.280418e-02	-2.897635e-02	0.0	9.951875e-01	-2.803889e-03	0.0	6.796488e-03	-1.820110e-02	0.0	1.798544e-02	2.626178e-02	0.0	9.182203e-01	-2.087471e-02	0.0	9.49388
[...]
POINT_DATA 5233

SCALARS Conservative_1 float 1
LOOKUP_TABLE default
4.285250e-01	2.169239e-01	1.768399e-01	1.474104e-01	1.282028e-01	1.135536e-01	1.018988e-01	9.245579e-02	8.471111e-02	7.829471e-02	7.292206e-02	6.839928e-02	6.454236e-02	6.124667e-02	5.840102e-02	5.593220e-02	5.377483e-02	5.176063e-02	4.986711e-02	4.814227e-02	4.674954e-02	4.558295e-02	4.462821e-02	4.385503e-02	4.318221e-02	4.267348e-02	4.221289e-02	4.188052e-02	4.155142e-02	4.126784e-02	4.099975e-02	4.064987e-02	4.033393e-02	3.985785e-02	3.938484e-02	3.875895e-02	3.812864e-02	3.735712e-02	3.660239e-02	3.573308e-02	3.490595e-02	3.399704e-02	3.315654e-02	3.226273e-02	3.145347e-02	3.062120e-02	2.987164e-02	2.913194e-02	2.845756e-02	2.781533e-02	2.722836e-02	2.667402e-02	2.614932e-02	2.568348e-02	2.522205e-02	2.482517e-02	2.442385e-02	2.407391e-02	2.371212e-02	2.339116e-02	2.305095e-02	2.274496e-02	2.240874e-02	2.209916e-02	2.175239e-02	2.142324e-02	2.105161e-02	2.068973e-02	2.028492e-02	1.987051e-02	1.942539e-02	1.894803e-02	1.845144e-02	1.790843e-02	1.733889e-02	1.673357e-02	1.607775e-02	1.538965e-02	1.464791e-02	1.386402e-02	1.302172e-02	1.212808e-02	1.117282e-02	1.015570e-02	9.067316e-03	7.910098e-03	6.671879e-03	5.354491e-03	3.958625e-03	2.475429e-03	9.455206e-04	-4.649304e-04	-2.243036e-03	-4.646697e-03	-2.220057e-03	6.004786e-03	7.980547e-03	2.563858e-03	-4.536930e-03	-1.108020e-02	-1.716796e-02	-3.041287e-02	-5.058674e-02	-6.699335e-02	-7.946620e-02	-9.923096e-02	-1.264759e-01	-1.479001e-01	-1.583217e-01	-1.623283e-01	-1.643169e-01	-1.653774e-01	-1.653222e-01	-1.637495e-01	-1.608861e-01	-1.571085e-01	-1.528903e-01	-1.486740e-01	-1.448661e-01	-1.416339e-01	-1.390073e-01	-1.370923e-01	-1.359341e-01	-1.354503e-01	-1.352730e-01	-1.350976e-01	-1.348456e-01	-1.345741e-01	-1.343898e-01	-1.343499e-01	-1.342609e-01	-1.341102e-01	-1.336838e-01	-1.329762e-01	-1.321031e-01	-1.311633e-01	-1.304333e-01	-1.296103e-01	-1.283086e-01	-1.257659e-01	-1.219770e-01	-1.161694e-01	-1.066662e-01	-9.350974e-02	-8.167135e-02	-7.648828e-02	-7.713426e-02	-7.963261e-02	-8.152493e-02	-8.264831e-02	-8.317622e-02	-8.337815e-02	-8.305747e-02	-8.235340e-02	-8.135930e-02	-8.004739e-02	-7.868400e-02	-7.708583e-02	-7.542527e-02	-7.371348e-02	-7.190910e-02	-7.018463e-02	-6.838204e-02	-6.672589e-02	-6.502429e-02	-6.350639e-02	-6.197737e-02	-6.065548e-02	-5.934386e-02	-5.825190e-02	-5.718650e-02	-5.635710e-02	-5.554598e-02	-5.499224e-02	-5.454436e-02	-5.428837e-02	-5.425885e-02	-5.444152e-02	-5.496177e-02	-5.574228e-02	-5.704272e-02	-5.864722e-02	-6.052141e-02	-6.258895e-02	-6.505671e-02	-6.785185e-02	-7.106877e-02	-7.466018e-02	-7.872508e-02	-8.331166e-02	-8.857856e-02	-9.467286e-02	-1.018569e-01	-1.103996e-01	-1.207281e-01	-1.333423e-01	-1.525464e-01	-1.691861e-01	-3.228242e-01	4.019690e-02	-1.075426e-04	-1.179808e-04	-1.278135e-04	-1.362319e-04	-1.465663e-04	-1.544736e-04	-1.633061e-04	-1.664325e-04	-1.609612e-04	-1.596877e-04	-1.658123e-04	-1.679563e-04	-1.712063e-04	-1.638229e-04	-1.458356e-04	-1.374744e-04	-1.194140e-04	-1.063047e-04	-9.177866e-05	-7.292619e-05	-4.675607e-05	-3.062942e-05	2.750872e-05	1.645396e-04	1.169452e-04	1.403866e-04	2.043723e-04	2.130287e-04	1.312042e-04	1.628086e-04	1.900070e-04	2.044722e-04	2.160878e-04	2.183482e-04	2.179226e-04	2.072837e-04	1.741288e-04	1.446866e-04	8.841699e-05	6.549941e-05	5.440610e-05	3.422331e-05	1.394023e-05	-7.097962e-06	-2.662821e-05	-4.386896e-05	-5.867634e-05	-7.289241e-05	-8.536581e-05	-9.707247e-05	9.764443e-03	3.198077e-02	-6.590712e-02	-5.995689e-02	2.140877e-02	3.330465e-01	2.384283e-01	3.708524e-02	3.347966e-02	-3.107826e-02	3.603068e-02	-6.807335e-02	1.262605e-01	1.104317e-01	-6.705557e-02	3.484378e-02	-1.306304e-02	9.847050e-02	8.913089e-02	4.052671e-03	3.122028e-02	3.918614e-02	3.808716e-02	-9.763934e-02	4.054722e-02	-1.099046e-01	4.233641e-02	-1.080779e-01	4.479012e-02	1.145017e-02	4.822522e-02	-1.700252e-03	5.654096e-02	5.209644e-02	1.661988e-03	2.246581e-02	4.136694e-02	6.237775e-02	8.161350e-02	7.034308e-02	1.622674e-02	4.638382e-02	3.659744e-02	1.809686e-01	2.886646e-02	2.288093e-02	2.605159e-02	2.378974e-02	2.485126e-02	2.430823e-02	1.474154e-02	4.338735e-03	2.173322e-02	7.814871e-03	2.209818e-02	2.021683e-02	2.079074e-02	5.574105e-03	1.965620e-02	5.419948e-02	1.577078e-02	1.744824e-02	1.220390e-02	1.356185e-02	2.739522e-02	1.666506e-02	2.965409e-02	4.345549e-02	3.037978e-03	1.482612e-01	-2.870961e-03	-1.331776e-01	5.015431e-02	5.923955e-02	7.545365e-02	-4.501106e-02	3.980629e-02	1.877637e-02	2.671643e-02	3.547586e-02	3.759337e-02	1.417427e-02	1.814600e-02	2.813313e-02	3.276234e-02	8.822398e-03	-3.584890e-03	3.261327e-04	2.108416e-02	1.706714e-02	4.496485e-01	1.847560e-02	1.290949e-02	1.992644e-02	1.908475e-02	2.331566e-02	3.420181e-02	-1.942975e-02	6.244682e-03	-7.009599e-02	-7.985049e-03	-1.407479e-01	-1.388577e-01	-1.427690e-01	-1.168901e-01	-6.747036e-02	-1.614326e-01	-7.022188e-02	-6.871712e-02	-8.039405e-02	-7.210093e-02	-5.315245e-02	-6.951349e-02	-6.649345e-02	-8.328585e-02	-5.891131e-02	-5.565168e-02	-1.276507e-01	-8.553248e-02	-6.868558e-02	-6.308493e-02	-1.211253e-01	-1.354333e-01	-1.060691e-01	-1.087187e-01	-1.134020e-01	-1.032106e-01	-6.761608e-02	-7.362374e-02	-1.144597e-01	-1.156946e-01	-6.481700e-02	-1.124516e-01	-1.115365e-01	-6.238554e-02	-6.890564e-02	-5.566633e-02	-5.768222e-02	-5.271409e-02	-5.399662e-02	-5.156906e-02	-5.190283e-02	-5.425798e-02	-5.189021e-02	-6.570816e-02	-5.722919e-02	-7.596280e-02	-5.164497e-02	-5.238900e-02	-5.221694e-02	-5.163938e-02	-5.475916e-02	-5.327871e-02	-5.876629e-02	-5.660934e-02	-6.359530e-02	-6.113629e-02	-6.962694e-02	-6.598597e-02	-1.120548e-01	-1.108410e-01	-1.139513e-01	-1.128987e-01	-1.414568e-01	-1.149699e-01	-1.247795e-01	-1.424865e-01	1.781150e-02	-6.442868e-02	6.603380e-02	3.860164e-02	2.049145e-02	2.543775e-02	-5.467577e-02	-1.377475e-01	-8.411858e-02	-1.241161e-01	-1.315599e-01	-1.074225e-01	-1.186933e-01	-9.163313e-02	-9.900130e-02	-1.047478e-01	-1.082761e-01	-1.203589e-01	-1.010793e-01	-9.197401e-02	-6.087229e-02	-3.787185e-01	-2.044779e-01	-2.726151e-01	3.041716e-02	6.732331e-03	-1.369676e-01	-7.004193e-02	1.302174e-03	-9.296351e-04	1.063672e-02	1.527516e-02	1.936481e-02	-1.110717e-01	-2.882436e-02	-1.966045e-02	1.695480e-02	2.980866e-02	4.708190e-02	-1.217891e-03	-5.654091e-02	2.913014e-02	3.384267e-02	1.046367e-01	1.770290e-02	3.853810e-02	3.672427e-02	1.127011e-02	3.804652e-03	1.569235e-02	1.130497e-03	6.279358e-02	1.410303e-02	3.055174e-02	2.768348e-02	2.013169e-02	1.066138e-02	1.878146e-02	4.351216e-02	3.450398e-02	-7.261094e-02	-1.116851e-01	-5.238274e-02	-4.808528e-02	-9.903126e-02	-5.161905e-02	-9.306478e-02	-4.950720e-02	-1.028642e-01	-7.340954e-02	-5.796627e-02	-6.491035e-02	-5.033568e-02	-1.143093e-01	-6.805158e-02	-8.673246e-02	-8.782479e-02	-7.747156e-02	-8.894964e-02	-1.014038e-01	2.836981e-02	1.539962e-02	-9.121293e-02	-9.456955e-02	-1.198143e-01	-7.588264e-02	-1.293675e-01	-5.131741e-02	1.444407e-02	-1.220772e-01	-1.745416e-01	-1.505735e-01	-5.484387e-02	-3.821706e-02	-2.849733e-03	-5.714499e-03	-9.925109e-03	2.356283e-03	1.492594e-01	9.273081e-03	1.936582e-01	1.375294e-01	-5.425944e-02	2.299104e-02	9.354420e-02	4.075833e-02	-5.600651e-02	1.187669e-01	-4.917776e-04	1.975018e-02	-5.258924e-02	3.755740e-02	-8.382900e-02	3.957671e-02	4.206055e-02	9.994313e-03	4.519020e-02	4.915043e-02	5.624419e-02	4.666321e-03	5.926359e-02	6.691875e-02	8.481228e-02	1.328934e-02	3.250526e-02	3.320773e-02	1.633673e-01	2.052531e-02	2.094573e-02	2.142293e-02	3.540295e-03	1.907213e-02	1.942169e-02	1.794030e-02	6.717151e-03	5.128003e-02	5.360406e-02	1.370962e-02	1.183931e-02	2.360877e-02	2.552247e-02	7.180660e-02	7.765501e-02	3.119290e-02	3.189936e-02	1.235517e-02	1.285237e-02	2.419814e-02	2.488304e-02	7.634665e-03	8.488601e-03	5.396780e-05	1.821847e-02	1.847901e-02	1.479326e-02	1.510410e-02	1.594852e-02	1.622013e-02	1.721050e-02	1.743972e-02	1.646288e-02	-1.354228e-02	-1.413995e-03	-1.210670e-01	-9.386898e-02	-5.788773e-02	-5.771464e-02	-5.746878e-02	-5.718420e-02	-8.080351e-02	-7.169050e-02	-5.583066e-02	-5.690178e-02	-5.615212e-02	-5.370423e-02	-5.408218e-02	-6.213737e-02	-1.145674e-01	-1.175305e-01	-8.662525e-02	-8.526930e-02	-9.375891e-02	-9.567797e-02	-9.714780e-02	-4.790610e-02	-4.921896e-02	-4.978880e-02	-4.817658e-02	-4.791283e-02	-5.257319e-02	-4.890636e-02	-4.841532e-02	-4.776925e-02	-4.784351e-02	-4.841181e-02	-4.882916e-02	-5.031200e-02	-5.099322e-02	-5.307184e-02	-5.385919e-02	-5.717128e-02	-5.762566e-02	-5.458542e-02	-5.529022e-02	-8.994226e-02	-9.075860e-02	-9.158647e-02	-9.232901e-02	-1.039936e-01	-1.209711e-01	-1.194523e-01	3.521527e-02	3.591306e-02	2.191133e-02	2.245551e-02	-4.486064e-02	-1.164960e-01	-1.042019e-01	-1.074739e-01	-8.016388e-02	-8.212106e-02	-5.966615e-02	-6.719174e-02	-5.977665e-02	-5.765507e-02	2.625440e-02	2.692614e-02	5.728368e-03	3.229968e-03	1.672714e-02	1.218521e-04	1.639721e-02	1.466292e-02	3.110634e-02	1.981054e-02	4.549979e-02	-9.933243e-02	-9.133585e-02	-6.621577e-02	-3.843179e-02	-1.080385e-01	-2.231655e-01	-2.031716e-01	1.488592e-01	7.673157e-03	2.983644e-03	-1.198707e-02	1.023311e-02	4.764191e-02	1.022051e-01	-4.739598e-02	2.518400e-01	-1.383874e-03	2.683524e-02	7.169396e-04	2.752506e-02	1.940309e-03	3.767005e-02	-1.483680e-05	1.536064e-02	3.651624e-02	2.610043e-02	1.130509e-01	9.157110e-04	-7.894688e-02	-4.809490e-02	-6.023936e-02	-4.513439e-02	-1.199367e-01	-4.798669e-02	-6.494888e-02	-5.221674e-02	-7.439072e-02	-9.444484e-02	-2.221787e-01	2.548583e-03	-2.556527e-02	-8.515384e-02	-1.849708e-02	6.214934e-02	9.774387e-03	-8.456412e-03	1.237843e-02	1.768956e-02	3.993321e-03	-6.163996e-02	-4.441781e-02	-4.346036e-02	-4.476162e-02	-8.465602e-02	-6.304910e-02	-4.784007e-02	-4.686201e-02	-5.732452e-02	-6.338670e-02	-6.833762e-02	-8.282668e-02	2.469309e-02	2.541032e-02	1.335666e-02	-7.501483e-02	-7.533718e-02	-7.403198e-02	-1.373811e-01	-4.796694e-02	-3.223358e-02	-1.867264e-03	-4.488917e-03	4.944836e-03	2.246304e-01	2.525765e-01	6.642065e-02	9.240242e-02	-4.695631e-02	1.734142e-02	-4.369556e-02	3.449451e-02	3.543323e-02	3.892158e-02	4.030492e-02	8.686652e-03	9.255234e-03	4.180229e-02	4.357448e-02	5.525568e-02	5.845309e-02	8.422273e-02	2.961060e-02	3.043249e-02	1.278161e-01	1.809480e-02	1.845009e-02	1.666675e-02	1.701212e-02	5.816321e-03	4.995716e-02	5.243204e-02	1.176290e-02	1.207509e-02	2.035246e-02	2.087838e-02	7.138916e-02	7.729550e-02	2.828400e-02	2.899229e-02	1.066256e-02	1.106493e-02	1.144435e-02	2.147483e-02	2.206031e-02	6.631329e-03	7.382107e-03	8.078316e-03	1.557689e-02	1.585794e-02	1.609352e-02	1.263317e-02	1.288842e-02	1.314585e-02	1.360617e-02	1.379570e-02	1.490498e-02	1.510479e-02	1.403781e-02	-9.920385e-02	-4.798564e-02	-4.798922e-02	-6.986301e-02	-4.804523e-02	-4.779534e-02	-4.659472e-02	-3.973151e-02	-5.187425e-02	-9.665921e-02	-9.824159e-02	-6.617448e-02	-6.716612e-02	-7.670188e-02	-7.842368e-02	-8.040963e-02	-4.369764e-02	-5.033589e-02	-4.892705e-02	-4.609637e-02	-4.537103e-02	-4.484032e-02	-4.392137e-02	-4.380977e-02	-4.362971e-02	-4.347344e-02	-4.346284e-02	-4.358088e-02	-4.392814e-02	-4.414714e-02	-4.445881e-02	-4.549327e-02	-4.779496e-02	-4.794894e-02	-4.590183e-02	-4.625815e-02	-4.670126e-02	-6.948348e-02	-7.060854e-02	-7.171691e-02	-7.271425e-02	-7.360251e-02	-9.938700e-02	-9.855673e-02	3.193538e-02	3.275241e-02	3.355908e-02	1.885422e-02	1.936268e-02	-9.630794e-02	-9.206860e-02	-8.552459e-02	-8.853540e-02	-9.162355e-02	-6.091259e-02	-3.753466e-02	-3.993546e-02	-4.591985e-02	-5.781555e-02	-5.560681e-02	-5.368940e-02	2.270831e-02	2.333958e-02	2.402573e-02	1.423583e-02	1.447406e-02	-3.971905e-04	9.177318e-03	-1.050972e-01	-7.500700e-02	1.798994e-02	-1.253720e-02	1.563698e-01	4.382977e-02	4.604390e-02	5.176098e-03	-9.130903e-02	-4.111661e-02	7.908112e-04	-6.112656e-02	7.560759e-05	-6.058395e-02	-9.707482e-02	-2.340871e-02	-4.028029e-02	-2.861920e-02	-8.705625e-02	1.001836e-01	2.932594e-02	1.077677e-02	3.582829e-03	1.441303e-02	8.856014e-03	1.534165e-02	1.269773e-02	-7.981574e-02	-4.107573e-02	-5.790477e-02	-5.555120e-02	-3.980137e-02	-5.909641e-02	-5.017128e-02	8.693860e-02	-7.769070e-02	3.484181e-02	-1.428266e-01	-8.525714e-02	1.111595e-01	6.435857e-02	2.729598e-03	2.410274e-02	-8.273855e-04	2.459317e-02	2.558311e-02	1.833973e-03	9.438919e-02	1.030406e-03	-4.130338e-02	-4.163099e-02	-4.137399e-02	-1.796367e-02	-5.155915e-02	-3.970118e-02	-4.452313e-02	-3.581620e-02	-4.589149e-02	-4.845174e-02	2.271959e-02	2.318090e-02	-7.068768e-02	-4.188930e-02	-3.418872e-02	-2.416419e-04	-3.328965e-03	4.426697e-03	6.036385e-02	8.014198e-02	-4.068447e-02	3.273874e-02	3.368198e-02	3.599495e-02	3.729071e-02	8.059257e-03	8.476511e-03	3.862552e-02	4.018116e-02	4.198849e-02	5.368112e-02	5.681616e-02	2.773531e-02	2.831652e-02	1.016132e-01	1.575849e-02	1.617707e-02	1.464600e-02	1.503608e-02	4.839637e-02	5.086662e-02	1.031091e-02	1.047860e-02	1.829511e-02	6.893737e-02	7.420997e-02	2.615464e-02	2.680089e-02	9.501603e-03	9.754157e-03	1.009692e-02	1.901795e-02	1.937289e-02	5.860627e-03	6.497181e-03	7.097004e-03	7.616028e-03	1.333139e-02	1.359171e-02	1.382605e-02	1.411805e-02	1.091475e-02	1.115920e-02	1.131834e-02	1.153877e-02	1.169430e-02	1.312168e-02	1.288533e-02	1.190792e-02	-4.123918e-02	-6.690633e-02	-6.356265e-02	-4.122310e-02	-4.109957e-02	-4.055999e-02	-3.899093e-02	-3.592513e-02	-7.839377e-02	-7.880447e-02	-5.090246e-02	-5.185848e-02	-6.041786e-02	-6.230235e-02	-6.427417e-02	-6.665327e-02	-4.799167e-02	-4.665612e-02	-4.546704e-02	-4.362379e-02	-4.288160e-02	-4.216005e-02	-4.170879e-02	-4.062557e-02	-4.048005e-02	-4.035732e-02	-3.995973e-02	-3.952242e-02	-3.980758e-02	-3.943077e-02	-3.982796e-02	-3.949769e-02	-3.999463e-02	-4.112101e-02	-4.167329e-02	-4.000264e-02	-4.065057e-02	-4.038283e-02	-4.102861e-02	-5.268170e-02	-5.384142e-02	-5.489125e-02	-5.615977e-02	-5.714992e-02	-5.806173e-02	-7.913321e-02	-7.917049e-02	3.001220e-02	3.081190e-02	3.177206e-02	1.644333e-02	1.707677e-02	1.734048e-02	-7.801983e-02	-7.471938e-02	-6.901642e-02	-6.928833e-02	-7.209042e-02	-7.460786e-02	-7.647839e-02	-3.105477e-02	-2.682700e-02	-2.653522e-02	-3.007998e-02	-4.960031e-02	-5.335154e-02	-5.147602e-02	2.015816e-02	2.055734e-02	2.139620e-02	2.183192e-02	1.208264e-02	1.230424e-02	1.247542e-02	2.687005e-03	-9.209650e-02	5.773753e-02	-1.532935e-01	1.977348e-03	2.342608e-02	8.238846e-03	1.233757e-03	-6.655013e-02	2.451361e-04	4.765002e-03	9.380576e-03	-4.836623e-02	-4.266014e-02	-2.568766e-02	-1.288158e-02	-8.368313e-03	-6.955637e-03	-8.578020e-03	-2.354603e-06	9.603675e-02	-2.388909e-02	6.126262e-02	7.930194e-02	4.455005e-02	2.735731e-02	1.278033e-02	-8.184883e-02	-4.641417e-02	-5.116238e-02	-3.680762e-02	-3.669064e-02	-3.615262e-02	-3.685458e-02	-3.627437e-02	1.609364e-02	-2.000824e-02	-7.797147e-02	7.991334e-03	-1.635626e-01	-7.001383e-02	-6.282846e-03	1.702679e-01	1.820060e-01	4.274752e-02	5.314766e-03	-1.317458e-03	-4.935116e-02	4.954785e-04	-5.537465e-02	-2.154708e-02	-3.193769e-02	3.431423e-02	3.413025e-03	1.146010e-02	1.111411e-02	-7.366020e-02	-3.620275e-02	-5.321729e-02	7.395830e-02	2.193923e-02	-1.732387e-02	-3.102985e-02	-3.428272e-02	-3.883162e-02	2.057989e-02	-3.600013e-02	-3.031023e-02	-3.317719e-03	4.103719e-03	3.144318e-02	3.261150e-02	3.359029e-02	3.495623e-02	7.718518e-03	7.441078e-03	3.604886e-02	3.757383e-02	3.887303e-02	4.056733e-02	5.166120e-02	5.455718e-02	2.569771e-02	8.399772e-02	1.391619e-02	1.418271e-02	1.322088e-02	1.338682e-02	4.669558e-02	4.903581e-02	8.999778e-03	9.307643e-03	6.517017e-02	6.942989e-02	2.436391e-02	8.391646e-03	8.746197e-03	8.950383e-03	1.705365e-02	5.815354e-03	6.310245e-03	6.734457e-03	7.131926e-03	1.152467e-02	1.189167e-02	1.197501e-02	1.239229e-02	1.257076e-02	9.665724e-03	9.702949e-03	9.994589e-03	1.002543e-02	1.032329e-02	-6.335870e-02	-6.044076e-02	-5.780361e-02	-3.674718e-02	-3.607346e-02	-3.629269e-02	-3.517123e-02	-3.420763e-02	-6.131323e-02	-6.102729e-02	-3.929391e-02	-4.114721e-02	-5.094445e-02	-5.211087e-02	-5.421600e-02	-4.480677e-02	-4.384743e-02	-4.269119e-02	-4.201272e-02	-4.098884e-02	-4.041181e-02	-3.959222e-02	-3.888747e-02	-3.793380e-02	-3.755948e-02	-3.644844e-02	-3.621244e-02	-3.612574e-02	-3.628855e-02	-3.641081e-02	-4.085205e-02	-4.245769e-02	-4.243206e-02	-4.451526e-02	-4.473591e-02	-4.569229e-02	-4.696038e-02	-6.135789e-02	-6.212496e-02	2.851319e-02	2.961904e-02	3.044781e-02	1.451085e-02	1.521961e-02	-6.206303e-02	-5.974586e-02	-5.520433e-02	-5.657014e-02	-5.888289e-02	-6.070425e-02	-6.150435e-02	-6.146153e-02	-3.078403e-02	-2.569203e-02	-2.120539e-02	-1.791492e-02	-4.934217e-02	-4.781610e-02	1.813580e-02	1.931322e-02	1.037082e-02	1.069584e-02	1.073703e-02	1.106063e-02	1.843095e-01	-1.661614e-01	2.221673e-03	-9.322873e-03	8.223144e-02	5.703173e-02	-6.707494e-02	-1.668373e-02	-5.242426e-02	9.436188e-02	6.319380e-02	-4.074864e-03	4.996342e-03	2.851942e-03	-1.350044e-02	-7.915822e-02	-3.066951e-02	-1.987046e-02	3.427277e-03	5.419800e-02	1.382256e-02	-6.408733e-02	1.003496e-02	4.279930e-02	4.036607e-02	1.672449e-02	7.364615e-03	8.413420e-03	4.766624e-04	1.169743e-02	7.054024e-03	7.253368e-03	-4.381393e-02	-5.903033e-02	-4.401865e-02	-1.340927e-02	-3.513024e-02	5.152064e-02	-1.517798e-01	-6.144295e-02	-7.482161e-03	-1.961360e-03	6.682860e-02	2.184188e-02	-3.238895e-02	-3.271145e-02	-7.055448e-02	-9.984294e-04	-9.070488e-02	-5.284683e-03	1.700488e-01	5.361062e-03	1.414280e-03	1.691825e-03	-3.254268e-02	4.518442e-03	-5.059013e-02	-4.894704e-02	-3.250592e-02	-1.932383e-02	-2.792566e-02	2.056510e-02	-2.665545e-02	-2.309740e-02	3.985793e-03	3.089702e-02	3.322368e-02	6.830053e-03	3.575684e-02	3.771324e-02	4.903753e-02	7.100106e-02	1.234000e-02	4.467504e-02	4.676231e-02	8.121908e-03	5.997165e-02	2.295358e-02	2.442301e-02	7.718012e-03	7.897457e-03	1.467472e-02	5.733047e-03	6.034453e-03	6.395161e-03	6.651742e-03	1.043638e-02	1.093650e-02	1.120711e-02	8.683760e-03	8.979466e-03	-5.667627e-02	-5.447245e-02	-3.225977e-02	-3.042079e-02	-4.692973e-02	-3.245579e-02	-4.585137e-02	-3.509898e-02	-4.172689e-02	-3.985413e-02	-3.822854e-02	-3.680548e-02	-3.582323e-02	-3.430322e-02	-3.358444e-02	-3.307931e-02	-3.274235e-02	-3.253040e-02	-3.243608e-02	-3.239194e-02	-3.235737e-02	-3.414794e-02	-3.584744e-02	-3.684760e-02	-3.901299e-02	-4.025885e-02	-4.708812e-02	-4.835610e-02	2.599154e-02	2.780337e-02	2.912374e-02	1.272244e-02	1.310983e-02	-4.898133e-02	-4.747326e-02	-4.389905e-02	-3.963192e-02	-4.764930e-02	-4.907197e-02	-4.991617e-02	-4.962384e-02	-4.840650e-02	-4.899061e-02	-2.493294e-02	-1.718680e-02	-4.767253e-02	-4.586724e-02	1.565129e-02	1.789520e-02	1.917448e-02	9.317157e-03	9.662702e-03	-7.193941e-02	1.518613e-01	1.502175e-01	-9.893558e-02	5.897810e-03	-6.225392e-02	-4.152485e-02	8.378355e-02	2.638502e-03	4.028113e-03	1.041118e-01	7.265537e-02	-2.324658e-02	-1.353592e-02	-5.043461e-03	-5.057267e-02	2.074356e-02	-1.324814e-02	-8.165020e-02	3.458000e-02	4.801196e-03	-3.776912e-02	-2.600044e-02	3.076341e-03	1.016076e-02	4.072647e-02	1.599179e-02	1.305408e-02	4.979280e-02	5.198804e-02	5.105716e-03	5.374792e-03	-1.128453e-01	-5.628625e-02	-5.850560e-02	-4.752333e-02	-1.322236e-02	-2.974793e-02	1.840453e-02	6.297953e-03	-1.375718e-01	-1.384565e-01	-7.346346e-03	4.767386e-02	-4.898974e-02	4.078598e-02	5.439358e-02	-1.584856e-02	3.604276e-03	1.228693e-02	-1.689012e-03	6.403089e-03	6.493244e-03	-5.421781e-02	-1.032232e-02	4.574884e-02	5.696471e-02	1.962678e-02	-5.423353e-03	1.206949e-01	6.115137e-03	1.753218e-03	2.581413e-03	-2.965921e-02	4.424700e-03	-4.624452e-02	-2.975298e-02	-9.041083e-03	-2.982528e-02	-2.063481e-02	-1.821758e-02	2.984047e-02	3.227300e-02	3.674907e-02	3.903834e-02	6.128760e-02	1.069870e-02	4.228668e-02	4.394198e-02	9.789482e-03	2.488816e-02	2.639876e-02	2.195287e-02	6.559940e-03	6.784738e-03	6.872135e-03	5.598473e-03	8.873991e-03	9.330568e-03	7.026925e-03	7.242100e-03	1.715169e-02	-5.234556e-02	-2.954994e-02	-2.931232e-02	-4.001783e-02	-4.023105e-02	-3.820341e-02	-3.313718e-02	-3.641385e-02	-3.498585e-02	-3.393186e-02	-3.244096e-02	-3.175631e-02	-3.115793e-02	-3.070820e-02	-3.037983e-02	-3.013612e-02	-2.996922e-02	-2.052676e-02	-2.529307e-02	-2.753392e-02	-2.975893e-